 Entering Gaussian System, Link 0=g09
 Initial command:
 /opt/gaussian/09.D.01/g09/l1.exe "/scratch/rmarti96/23425813/Gau-14676.inp" -scrdir="/scratch/rmarti96/23425813/"
 Entering Link 1 = /opt/gaussian/09.D.01/g09/l1.exe PID=     14683.
  
 Copyright (c) 1988,1990,1992,1993,1995,1998,2003,2009,2013,
            Gaussian, Inc.  All Rights Reserved.
  
 This is part of the Gaussian(R) 09 program.  It is based on
 the Gaussian(R) 03 system (copyright 2003, Gaussian, Inc.),
 the Gaussian(R) 98 system (copyright 1998, Gaussian, Inc.),
 the Gaussian(R) 94 system (copyright 1995, Gaussian, Inc.),
 the Gaussian 92(TM) system (copyright 1992, Gaussian, Inc.),
 the Gaussian 90(TM) system (copyright 1990, Gaussian, Inc.),
 the Gaussian 88(TM) system (copyright 1988, Gaussian, Inc.),
 the Gaussian 86(TM) system (copyright 1986, Carnegie Mellon
 University), and the Gaussian 82(TM) system (copyright 1983,
 Carnegie Mellon University). Gaussian is a federally registered
 trademark of Gaussian, Inc.
  
 This software contains proprietary and confidential information,
 including trade secrets, belonging to Gaussian, Inc.
  
 This software is provided under written license and may be
 used, copied, transmitted, or stored only in accord with that
 written license.
  
 The following legend is applicable only to US Government
 contracts under FAR:
  
                    RESTRICTED RIGHTS LEGEND
  
 Use, reproduction and disclosure by the US Government is
 subject to restrictions as set forth in subparagraphs (a)
 and (c) of the Commercial Computer Software - Restricted
 Rights clause in FAR 52.227-19.
  
 Gaussian, Inc.
 340 Quinnipiac St., Bldg. 40, Wallingford CT 06492
  
  
 ---------------------------------------------------------------
 Warning -- This program may not be used in any manner that
 competes with the business of Gaussian, Inc. or will provide
 assistance to any competitor of Gaussian, Inc.  The licensee
 of this program is prohibited from giving any competitor of
 Gaussian, Inc. access to this program.  By using this program,
 the user acknowledges that Gaussian, Inc. is engaged in the
 business of creating and licensing software in the field of
 computational chemistry and represents and warrants to the
 licensee that it is not a competitor of Gaussian, Inc. and that
 it will not use this program in any manner prohibited above.
 ---------------------------------------------------------------
  

 Cite this work as:
 Gaussian 09, Revision D.01,
 M. J. Frisch, G. W. Trucks, H. B. Schlegel, G. E. Scuseria, 
 M. A. Robb, J. R. Cheeseman, G. Scalmani, V. Barone, B. Mennucci, 
 G. A. Petersson, H. Nakatsuji, M. Caricato, X. Li, H. P. Hratchian, 
 A. F. Izmaylov, J. Bloino, G. Zheng, J. L. Sonnenberg, M. Hada, 
 M. Ehara, K. Toyota, R. Fukuda, J. Hasegawa, M. Ishida, T. Nakajima, 
 Y. Honda, O. Kitao, H. Nakai, T. Vreven, J. A. Montgomery, Jr., 
 J. E. Peralta, F. Ogliaro, M. Bearpark, J. J. Heyd, E. Brothers, 
 K. N. Kudin, V. N. Staroverov, T. Keith, R. Kobayashi, J. Normand, 
 K. Raghavachari, A. Rendell, J. C. Burant, S. S. Iyengar, J. Tomasi, 
 M. Cossi, N. Rega, J. M. Millam, M. Klene, J. E. Knox, J. B. Cross, 
 V. Bakken, C. Adamo, J. Jaramillo, R. Gomperts, R. E. Stratmann, 
 O. Yazyev, A. J. Austin, R. Cammi, C. Pomelli, J. W. Ochterski, 
 R. L. Martin, K. Morokuma, V. G. Zakrzewski, G. A. Voth, 
 P. Salvador, J. J. Dannenberg, S. Dapprich, A. D. Daniels, 
 O. Farkas, J. B. Foresman, J. V. Ortiz, J. Cioslowski, 
 and D. J. Fox, Gaussian, Inc., Wallingford CT, 2013.
 
 ******************************************
 Gaussian 09:  ES64L-G09RevD.01 24-Apr-2013
                14-May-2019 
 ******************************************
 %chk=Tri-alkyl-L3.chk
 ----------------------------------------------------------------------
 # opt=(calcfc,noeigen) freq=noraman b3lyp scrf=(cpcm,solvent=dichloroe
 thane) nosymm def2svp empiricaldispersion=gd3
 ----------------------------------------------------------------------
 1/10=4,11=1,14=-1,18=20,19=15,26=3,38=1/1,3;
 2/9=110,12=2,15=1,17=6,18=5,40=1/2;
 3/5=43,7=101,11=2,16=1,25=1,30=1,70=2101,71=2,72=10,74=-5,124=31,140=1/1,2,3;
 4//1;
 5/5=2,38=5,53=10/2;
 8/6=4,10=90,11=11/1;
 11/6=1,8=1,9=11,15=111,16=1,31=1/1,2,10;
 10/6=1,13=1,31=1/2;
 6/7=2,8=2,9=2,10=2,28=1/1;
 7/10=1,18=20,25=1,30=1/1,2,3,16;
 1/10=4,11=1,14=-1,18=20,19=15,26=3/3(2);
 2/9=110,15=1/2;
 99//99;
 2/9=110,15=1/2;
 3/5=43,7=101,11=2,16=1,25=1,30=1,70=2105,71=1,72=10,74=-5,124=31/1,2,3;
 4/5=5,16=3,69=1/1;
 5/5=2,38=5,53=10/2;
 7/30=1/1,2,3,16;
 1/11=1,14=-1,18=20,19=15,26=3/3(-5);
 2/9=110,15=1/2;
 6/7=2,8=2,9=2,10=2,19=2,28=1/1;
 99/9=1/99;
 ------------
 Tri-alkyl-L3
 ------------
 Symbolic Z-matrix:
 Charge =  0 Multiplicity = 1
 P                     0.16129  -1.49642   0. 
 C                     0.76797  -0.63847   1.48602 
 C                     0.25114  -1.37412   2.70426 
 C                     2.28168  -0.65106   1.45799 
 C                     0.24648   0.78271   1.46083 
 H                    -0.86526  -1.38409   2.70751 
 H                     0.61678  -2.42899   2.70531 
 H                     0.60276  -0.87736   3.64047 
 H                     2.65783  -0.13011   0.54498 
 H                     2.69454  -0.13196   2.35634 
 H                     2.66159  -1.70086   1.45092 
 H                     0.59735   1.34483   2.35965 
 H                     0.60928   1.31362   0.54817 
 H                    -0.86996   0.78689   1.45519 
 C                     0.77065  -3.21137  -0.00166 
 C                     2.24244  -3.19282  -0.35649 
 C                     0.56292  -3.79143   1.38132 
 C                    -0.01583  -3.99449  -1.03147 
 H                     2.39299  -2.74124  -1.36638 
 H                     2.81481  -2.59271   0.39097 
 H                     2.65588  -4.23005  -0.36806 
 H                    -0.52089  -3.77933   1.64907 
 H                     0.92517  -4.84691   1.422 
 H                     1.124    -3.19587   2.14091 
 H                     0.32948  -5.05594  -1.06409 
 H                    -1.1035   -3.98433  -0.77981 
 H                     0.11931  -3.54774  -2.04568 
 C                     0.76525  -0.63655  -1.48602 
 H                     1.45293   0.12332  -1.17845 
 H                     1.25199  -1.3529   -2.11437 
 C                    -0.44313  -0.01328  -2.20917 
 C                    -1.12166  -1.096    -3.0214 
 C                    -1.38855   0.54119  -1.16466 
 C                     0.06141   1.09265  -3.11177 
 H                    -0.41318  -1.51932  -3.77327 
 H                    -1.46903  -1.92162  -2.35496 
 H                    -2.00657  -0.68313  -3.56305 
 H                    -0.87615   1.32081  -0.55138 
 H                    -2.28123   1.00397  -1.65034 
 H                    -1.73827  -0.27305  -0.48556 
 H                    -0.78747   1.57157  -3.65675 
 H                     0.58313   1.87635  -2.51169 
 H                     0.77822   0.68383  -3.86378 
 

 GradGradGradGradGradGradGradGradGradGradGradGradGradGradGradGradGradGrad
 Berny optimization.
 Initialization pass.
                           ----------------------------
                           !    Initial Parameters    !
                           ! (Angstroms and Degrees)  !
 --------------------------                            --------------------------
 ! Name  Definition              Value          Derivative Info.                !
 --------------------------------------------------------------------------------
 ! R1    R(1,2)                  1.82           calculate D2E/DX2 analytically  !
 ! R2    R(1,15)                 1.82           calculate D2E/DX2 analytically  !
 ! R3    R(1,28)                 1.82           calculate D2E/DX2 analytically  !
 ! R4    R(2,3)                  1.5141         calculate D2E/DX2 analytically  !
 ! R5    R(2,4)                  1.514          calculate D2E/DX2 analytically  !
 ! R6    R(2,5)                  1.514          calculate D2E/DX2 analytically  !
 ! R7    R(3,6)                  1.1164         calculate D2E/DX2 analytically  !
 ! R8    R(3,7)                  1.1164         calculate D2E/DX2 analytically  !
 ! R9    R(3,8)                  1.1166         calculate D2E/DX2 analytically  !
 ! R10   R(4,9)                  1.1165         calculate D2E/DX2 analytically  !
 ! R11   R(4,10)                 1.1167         calculate D2E/DX2 analytically  !
 ! R12   R(4,11)                 1.1165         calculate D2E/DX2 analytically  !
 ! R13   R(5,12)                 1.1167         calculate D2E/DX2 analytically  !
 ! R14   R(5,13)                 1.1164         calculate D2E/DX2 analytically  !
 ! R15   R(5,14)                 1.1165         calculate D2E/DX2 analytically  !
 ! R16   R(15,16)                1.5141         calculate D2E/DX2 analytically  !
 ! R17   R(15,17)                1.514          calculate D2E/DX2 analytically  !
 ! R18   R(15,18)                1.514          calculate D2E/DX2 analytically  !
 ! R19   R(16,19)                1.1164         calculate D2E/DX2 analytically  !
 ! R20   R(16,20)                1.1164         calculate D2E/DX2 analytically  !
 ! R21   R(16,21)                1.1166         calculate D2E/DX2 analytically  !
 ! R22   R(17,22)                1.1165         calculate D2E/DX2 analytically  !
 ! R23   R(17,23)                1.1167         calculate D2E/DX2 analytically  !
 ! R24   R(17,24)                1.1165         calculate D2E/DX2 analytically  !
 ! R25   R(18,25)                1.1167         calculate D2E/DX2 analytically  !
 ! R26   R(18,26)                1.1164         calculate D2E/DX2 analytically  !
 ! R27   R(18,27)                1.1165         calculate D2E/DX2 analytically  !
 ! R28   R(28,29)                1.07           calculate D2E/DX2 analytically  !
 ! R29   R(28,30)                1.07           calculate D2E/DX2 analytically  !
 ! R30   R(28,31)                1.54           calculate D2E/DX2 analytically  !
 ! R31   R(31,32)                1.5141         calculate D2E/DX2 analytically  !
 ! R32   R(31,33)                1.514          calculate D2E/DX2 analytically  !
 ! R33   R(31,34)                1.514          calculate D2E/DX2 analytically  !
 ! R34   R(32,35)                1.1164         calculate D2E/DX2 analytically  !
 ! R35   R(32,36)                1.1164         calculate D2E/DX2 analytically  !
 ! R36   R(32,37)                1.1166         calculate D2E/DX2 analytically  !
 ! R37   R(33,38)                1.1165         calculate D2E/DX2 analytically  !
 ! R38   R(33,39)                1.1167         calculate D2E/DX2 analytically  !
 ! R39   R(33,40)                1.1165         calculate D2E/DX2 analytically  !
 ! R40   R(34,41)                1.1167         calculate D2E/DX2 analytically  !
 ! R41   R(34,42)                1.1164         calculate D2E/DX2 analytically  !
 ! R42   R(34,43)                1.1165         calculate D2E/DX2 analytically  !
 ! A1    A(2,1,15)             109.4712         calculate D2E/DX2 analytically  !
 ! A2    A(2,1,28)             109.4713         calculate D2E/DX2 analytically  !
 ! A3    A(15,1,28)            109.4712         calculate D2E/DX2 analytically  !
 ! A4    A(1,2,3)              108.3085         calculate D2E/DX2 analytically  !
 ! A5    A(1,2,4)              108.3146         calculate D2E/DX2 analytically  !
 ! A6    A(1,2,5)              108.3057         calculate D2E/DX2 analytically  !
 ! A7    A(3,2,4)              110.6182         calculate D2E/DX2 analytically  !
 ! A8    A(3,2,5)              110.6028         calculate D2E/DX2 analytically  !
 ! A9    A(4,2,5)              110.6013         calculate D2E/DX2 analytically  !
 ! A10   A(2,3,6)              110.3664         calculate D2E/DX2 analytically  !
 ! A11   A(2,3,7)              110.3674         calculate D2E/DX2 analytically  !
 ! A12   A(2,3,8)              110.5459         calculate D2E/DX2 analytically  !
 ! A13   A(6,3,7)              108.6055         calculate D2E/DX2 analytically  !
 ! A14   A(6,3,8)              108.446          calculate D2E/DX2 analytically  !
 ! A15   A(7,3,8)              108.4462         calculate D2E/DX2 analytically  !
 ! A16   A(2,4,9)              110.3714         calculate D2E/DX2 analytically  !
 ! A17   A(2,4,10)             110.5421         calculate D2E/DX2 analytically  !
 ! A18   A(2,4,11)             110.3742         calculate D2E/DX2 analytically  !
 ! A19   A(9,4,10)             108.4467         calculate D2E/DX2 analytically  !
 ! A20   A(9,4,11)             108.5976         calculate D2E/DX2 analytically  !
 ! A21   A(10,4,11)            108.4451         calculate D2E/DX2 analytically  !
 ! A22   A(2,5,12)             110.5421         calculate D2E/DX2 analytically  !
 ! A23   A(2,5,13)             110.3677         calculate D2E/DX2 analytically  !
 ! A24   A(2,5,14)             110.3667         calculate D2E/DX2 analytically  !
 ! A25   A(12,5,13)            108.4512         calculate D2E/DX2 analytically  !
 ! A26   A(12,5,14)            108.4449         calculate D2E/DX2 analytically  !
 ! A27   A(13,5,14)            108.6049         calculate D2E/DX2 analytically  !
 ! A28   A(1,15,16)            108.3085         calculate D2E/DX2 analytically  !
 ! A29   A(1,15,17)            108.3146         calculate D2E/DX2 analytically  !
 ! A30   A(1,15,18)            108.3057         calculate D2E/DX2 analytically  !
 ! A31   A(16,15,17)           110.6182         calculate D2E/DX2 analytically  !
 ! A32   A(16,15,18)           110.6028         calculate D2E/DX2 analytically  !
 ! A33   A(17,15,18)           110.6013         calculate D2E/DX2 analytically  !
 ! A34   A(15,16,19)           110.3664         calculate D2E/DX2 analytically  !
 ! A35   A(15,16,20)           110.3674         calculate D2E/DX2 analytically  !
 ! A36   A(15,16,21)           110.5459         calculate D2E/DX2 analytically  !
 ! A37   A(19,16,20)           108.6055         calculate D2E/DX2 analytically  !
 ! A38   A(19,16,21)           108.446          calculate D2E/DX2 analytically  !
 ! A39   A(20,16,21)           108.4462         calculate D2E/DX2 analytically  !
 ! A40   A(15,17,22)           110.3714         calculate D2E/DX2 analytically  !
 ! A41   A(15,17,23)           110.5421         calculate D2E/DX2 analytically  !
 ! A42   A(15,17,24)           110.3742         calculate D2E/DX2 analytically  !
 ! A43   A(22,17,23)           108.4467         calculate D2E/DX2 analytically  !
 ! A44   A(22,17,24)           108.5976         calculate D2E/DX2 analytically  !
 ! A45   A(23,17,24)           108.4451         calculate D2E/DX2 analytically  !
 ! A46   A(15,18,25)           110.5421         calculate D2E/DX2 analytically  !
 ! A47   A(15,18,26)           110.3677         calculate D2E/DX2 analytically  !
 ! A48   A(15,18,27)           110.3667         calculate D2E/DX2 analytically  !
 ! A49   A(25,18,26)           108.4512         calculate D2E/DX2 analytically  !
 ! A50   A(25,18,27)           108.4449         calculate D2E/DX2 analytically  !
 ! A51   A(26,18,27)           108.6049         calculate D2E/DX2 analytically  !
 ! A52   A(1,28,29)            108.3057         calculate D2E/DX2 analytically  !
 ! A53   A(1,28,30)            108.3085         calculate D2E/DX2 analytically  !
 ! A54   A(1,28,31)            108.3146         calculate D2E/DX2 analytically  !
 ! A55   A(29,28,30)           110.6028         calculate D2E/DX2 analytically  !
 ! A56   A(29,28,31)           110.6013         calculate D2E/DX2 analytically  !
 ! A57   A(30,28,31)           110.6182         calculate D2E/DX2 analytically  !
 ! A58   A(28,31,32)           108.3085         calculate D2E/DX2 analytically  !
 ! A59   A(28,31,33)           108.3146         calculate D2E/DX2 analytically  !
 ! A60   A(28,31,34)           108.3057         calculate D2E/DX2 analytically  !
 ! A61   A(32,31,33)           110.6182         calculate D2E/DX2 analytically  !
 ! A62   A(32,31,34)           110.6028         calculate D2E/DX2 analytically  !
 ! A63   A(33,31,34)           110.6013         calculate D2E/DX2 analytically  !
 ! A64   A(31,32,35)           110.3664         calculate D2E/DX2 analytically  !
 ! A65   A(31,32,36)           110.3674         calculate D2E/DX2 analytically  !
 ! A66   A(31,32,37)           110.5459         calculate D2E/DX2 analytically  !
 ! A67   A(35,32,36)           108.6055         calculate D2E/DX2 analytically  !
 ! A68   A(35,32,37)           108.446          calculate D2E/DX2 analytically  !
 ! A69   A(36,32,37)           108.4462         calculate D2E/DX2 analytically  !
 ! A70   A(31,33,38)           110.3714         calculate D2E/DX2 analytically  !
 ! A71   A(31,33,39)           110.5421         calculate D2E/DX2 analytically  !
 ! A72   A(31,33,40)           110.3742         calculate D2E/DX2 analytically  !
 ! A73   A(38,33,39)           108.4467         calculate D2E/DX2 analytically  !
 ! A74   A(38,33,40)           108.5976         calculate D2E/DX2 analytically  !
 ! A75   A(39,33,40)           108.4451         calculate D2E/DX2 analytically  !
 ! A76   A(31,34,41)           110.5421         calculate D2E/DX2 analytically  !
 ! A77   A(31,34,42)           110.3677         calculate D2E/DX2 analytically  !
 ! A78   A(31,34,43)           110.3667         calculate D2E/DX2 analytically  !
 ! A79   A(41,34,42)           108.4512         calculate D2E/DX2 analytically  !
 ! A80   A(41,34,43)           108.4449         calculate D2E/DX2 analytically  !
 ! A81   A(42,34,43)           108.6049         calculate D2E/DX2 analytically  !
 ! D1    D(15,1,2,3)           -60.0015         calculate D2E/DX2 analytically  !
 ! D2    D(15,1,2,4)            60.0136         calculate D2E/DX2 analytically  !
 ! D3    D(15,1,2,5)          -179.9932         calculate D2E/DX2 analytically  !
 ! D4    D(28,1,2,3)           179.9985         calculate D2E/DX2 analytically  !
 ! D5    D(28,1,2,4)           -59.9864         calculate D2E/DX2 analytically  !
 ! D6    D(28,1,2,5)            60.0069         calculate D2E/DX2 analytically  !
 ! D7    D(2,1,15,16)          -74.2363         calculate D2E/DX2 analytically  !
 ! D8    D(2,1,15,17)           45.7788         calculate D2E/DX2 analytically  !
 ! D9    D(2,1,15,18)          165.772          calculate D2E/DX2 analytically  !
 ! D10   D(28,1,15,16)          45.7637         calculate D2E/DX2 analytically  !
 ! D11   D(28,1,15,17)         165.7788         calculate D2E/DX2 analytically  !
 ! D12   D(28,1,15,18)         -74.2279         calculate D2E/DX2 analytically  !
 ! D13   D(2,1,28,29)            7.0133         calculate D2E/DX2 analytically  !
 ! D14   D(2,1,28,30)          127.0049         calculate D2E/DX2 analytically  !
 ! D15   D(2,1,28,31)         -112.98           calculate D2E/DX2 analytically  !
 ! D16   D(15,1,28,29)        -112.9867         calculate D2E/DX2 analytically  !
 ! D17   D(15,1,28,30)           7.0049         calculate D2E/DX2 analytically  !
 ! D18   D(15,1,28,31)         127.02           calculate D2E/DX2 analytically  !
 ! D19   D(1,2,3,6)            -60.0395         calculate D2E/DX2 analytically  !
 ! D20   D(1,2,3,7)             60.0161         calculate D2E/DX2 analytically  !
 ! D21   D(1,2,3,8)            179.9887         calculate D2E/DX2 analytically  !
 ! D22   D(4,2,3,6)           -178.603          calculate D2E/DX2 analytically  !
 ! D23   D(4,2,3,7)            -58.5474         calculate D2E/DX2 analytically  !
 ! D24   D(4,2,3,8)             61.4253         calculate D2E/DX2 analytically  !
 ! D25   D(5,2,3,6)             58.5042         calculate D2E/DX2 analytically  !
 ! D26   D(5,2,3,7)            178.5598         calculate D2E/DX2 analytically  !
 ! D27   D(5,2,3,8)            -61.4675         calculate D2E/DX2 analytically  !
 ! D28   D(1,2,4,9)             60.0107         calculate D2E/DX2 analytically  !
 ! D29   D(1,2,4,10)           179.9842         calculate D2E/DX2 analytically  !
 ! D30   D(1,2,4,11)           -60.0426         calculate D2E/DX2 analytically  !
 ! D31   D(3,2,4,9)            178.5705         calculate D2E/DX2 analytically  !
 ! D32   D(3,2,4,10)           -61.456          calculate D2E/DX2 analytically  !
 ! D33   D(3,2,4,11)            58.5172         calculate D2E/DX2 analytically  !
 ! D34   D(5,2,4,9)            -58.5358         calculate D2E/DX2 analytically  !
 ! D35   D(5,2,4,10)            61.4376         calculate D2E/DX2 analytically  !
 ! D36   D(5,2,4,11)          -178.5891         calculate D2E/DX2 analytically  !
 ! D37   D(1,2,5,12)           179.9689         calculate D2E/DX2 analytically  !
 ! D38   D(1,2,5,13)           -60.0544         calculate D2E/DX2 analytically  !
 ! D39   D(1,2,5,14)            60.0009         calculate D2E/DX2 analytically  !
 ! D40   D(3,2,5,12)            61.4235         calculate D2E/DX2 analytically  !
 ! D41   D(3,2,5,13)          -178.5999         calculate D2E/DX2 analytically  !
 ! D42   D(3,2,5,14)           -58.5446         calculate D2E/DX2 analytically  !
 ! D43   D(4,2,5,12)           -61.4791         calculate D2E/DX2 analytically  !
 ! D44   D(4,2,5,13)            58.4975         calculate D2E/DX2 analytically  !
 ! D45   D(4,2,5,14)           178.5528         calculate D2E/DX2 analytically  !
 ! D46   D(1,15,16,19)         -60.0395         calculate D2E/DX2 analytically  !
 ! D47   D(1,15,16,20)          60.0161         calculate D2E/DX2 analytically  !
 ! D48   D(1,15,16,21)         179.9887         calculate D2E/DX2 analytically  !
 ! D49   D(17,15,16,19)       -178.603          calculate D2E/DX2 analytically  !
 ! D50   D(17,15,16,20)        -58.5474         calculate D2E/DX2 analytically  !
 ! D51   D(17,15,16,21)         61.4253         calculate D2E/DX2 analytically  !
 ! D52   D(18,15,16,19)         58.5042         calculate D2E/DX2 analytically  !
 ! D53   D(18,15,16,20)        178.5598         calculate D2E/DX2 analytically  !
 ! D54   D(18,15,16,21)        -61.4675         calculate D2E/DX2 analytically  !
 ! D55   D(1,15,17,22)          60.0107         calculate D2E/DX2 analytically  !
 ! D56   D(1,15,17,23)         179.9842         calculate D2E/DX2 analytically  !
 ! D57   D(1,15,17,24)         -60.0426         calculate D2E/DX2 analytically  !
 ! D58   D(16,15,17,22)        178.5705         calculate D2E/DX2 analytically  !
 ! D59   D(16,15,17,23)        -61.456          calculate D2E/DX2 analytically  !
 ! D60   D(16,15,17,24)         58.5172         calculate D2E/DX2 analytically  !
 ! D61   D(18,15,17,22)        -58.5358         calculate D2E/DX2 analytically  !
 ! D62   D(18,15,17,23)         61.4376         calculate D2E/DX2 analytically  !
 ! D63   D(18,15,17,24)       -178.5891         calculate D2E/DX2 analytically  !
 ! D64   D(1,15,18,25)         179.9689         calculate D2E/DX2 analytically  !
 ! D65   D(1,15,18,26)         -60.0544         calculate D2E/DX2 analytically  !
 ! D66   D(1,15,18,27)          60.0009         calculate D2E/DX2 analytically  !
 ! D67   D(16,15,18,25)         61.4235         calculate D2E/DX2 analytically  !
 ! D68   D(16,15,18,26)       -178.5999         calculate D2E/DX2 analytically  !
 ! D69   D(16,15,18,27)        -58.5446         calculate D2E/DX2 analytically  !
 ! D70   D(17,15,18,25)        -61.4791         calculate D2E/DX2 analytically  !
 ! D71   D(17,15,18,26)         58.4975         calculate D2E/DX2 analytically  !
 ! D72   D(17,15,18,27)        178.5528         calculate D2E/DX2 analytically  !
 ! D73   D(1,28,31,32)         -80.5954         calculate D2E/DX2 analytically  !
 ! D74   D(1,28,31,33)          39.4197         calculate D2E/DX2 analytically  !
 ! D75   D(1,28,31,34)         159.413          calculate D2E/DX2 analytically  !
 ! D76   D(29,28,31,32)        160.8581         calculate D2E/DX2 analytically  !
 ! D77   D(29,28,31,33)        -79.1268         calculate D2E/DX2 analytically  !
 ! D78   D(29,28,31,34)         40.8664         calculate D2E/DX2 analytically  !
 ! D79   D(30,28,31,32)         37.9644         calculate D2E/DX2 analytically  !
 ! D80   D(30,28,31,33)        157.9795         calculate D2E/DX2 analytically  !
 ! D81   D(30,28,31,34)        -82.0272         calculate D2E/DX2 analytically  !
 ! D82   D(28,31,32,35)        -60.0395         calculate D2E/DX2 analytically  !
 ! D83   D(28,31,32,36)         60.0161         calculate D2E/DX2 analytically  !
 ! D84   D(28,31,32,37)        179.9887         calculate D2E/DX2 analytically  !
 ! D85   D(33,31,32,35)       -178.603          calculate D2E/DX2 analytically  !
 ! D86   D(33,31,32,36)        -58.5474         calculate D2E/DX2 analytically  !
 ! D87   D(33,31,32,37)         61.4253         calculate D2E/DX2 analytically  !
 ! D88   D(34,31,32,35)         58.5042         calculate D2E/DX2 analytically  !
 ! D89   D(34,31,32,36)        178.5598         calculate D2E/DX2 analytically  !
 ! D90   D(34,31,32,37)        -61.4675         calculate D2E/DX2 analytically  !
 ! D91   D(28,31,33,38)         60.0107         calculate D2E/DX2 analytically  !
 ! D92   D(28,31,33,39)        179.9842         calculate D2E/DX2 analytically  !
 ! D93   D(28,31,33,40)        -60.0426         calculate D2E/DX2 analytically  !
 ! D94   D(32,31,33,38)        178.5705         calculate D2E/DX2 analytically  !
 ! D95   D(32,31,33,39)        -61.456          calculate D2E/DX2 analytically  !
 ! D96   D(32,31,33,40)         58.5172         calculate D2E/DX2 analytically  !
 ! D97   D(34,31,33,38)        -58.5358         calculate D2E/DX2 analytically  !
 ! D98   D(34,31,33,39)         61.4376         calculate D2E/DX2 analytically  !
 ! D99   D(34,31,33,40)       -178.5891         calculate D2E/DX2 analytically  !
 ! D100  D(28,31,34,41)        179.9689         calculate D2E/DX2 analytically  !
 ! D101  D(28,31,34,42)        -60.0544         calculate D2E/DX2 analytically  !
 ! D102  D(28,31,34,43)         60.0009         calculate D2E/DX2 analytically  !
 ! D103  D(32,31,34,41)         61.4235         calculate D2E/DX2 analytically  !
 ! D104  D(32,31,34,42)       -178.5999         calculate D2E/DX2 analytically  !
 ! D105  D(32,31,34,43)        -58.5446         calculate D2E/DX2 analytically  !
 ! D106  D(33,31,34,41)        -61.4791         calculate D2E/DX2 analytically  !
 ! D107  D(33,31,34,42)         58.4975         calculate D2E/DX2 analytically  !
 ! D108  D(33,31,34,43)        178.5528         calculate D2E/DX2 analytically  !
 --------------------------------------------------------------------------------
 Trust Radius=3.00D-01 FncErr=1.00D-07 GrdErr=1.00D-06
 Number of steps in this run=    241 maximum allowed number of steps=    258.
 GradGradGradGradGradGradGradGradGradGradGradGradGradGradGradGradGradGrad

                          Input orientation:                          
 ---------------------------------------------------------------------
 Center     Atomic      Atomic             Coordinates (Angstroms)
 Number     Number       Type             X           Y           Z
 ---------------------------------------------------------------------
      1         15           0        0.161290   -1.496416    0.000000
      2          6           0        0.767967   -0.638467    1.486024
      3          6           0        0.251136   -1.374119    2.704262
      4          6           0        2.281680   -0.651057    1.457995
      5          6           0        0.246477    0.782706    1.460835
      6          1           0       -0.865264   -1.384094    2.707515
      7          1           0        0.616781   -2.428989    2.705309
      8          1           0        0.602759   -0.877363    3.640472
      9          1           0        2.657830   -0.130115    0.544975
     10          1           0        2.694544   -0.131963    2.356335
     11          1           0        2.661591   -1.700859    1.450920
     12          1           0        0.597349    1.344828    2.359652
     13          1           0        0.609282    1.313623    0.548170
     14          1           0       -0.869958    0.786886    1.455186
     15          6           0        0.770651   -3.211372   -0.001665
     16          6           0        2.242438   -3.192823   -0.356493
     17          6           0        0.562920   -3.791426    1.381323
     18          6           0       -0.015828   -3.994495   -1.031465
     19          1           0        2.392988   -2.741244   -1.366378
     20          1           0        2.814807   -2.592706    0.390969
     21          1           0        2.655875   -4.230047   -0.368062
     22          1           0       -0.520888   -3.779327    1.649072
     23          1           0        0.925166   -4.846914    1.421998
     24          1           0        1.124004   -3.195875    2.140908
     25          1           0        0.329480   -5.055939   -1.064086
     26          1           0       -1.103497   -3.984328   -0.779813
     27          1           0        0.119310   -3.547743   -2.045678
     28          6           0        0.765249   -0.636548   -1.486022
     29          1           0        1.452930    0.123316   -1.178450
     30          1           0        1.251986   -1.352902   -2.114374
     31          6           0       -0.443132   -0.013276   -2.209173
     32          6           0       -1.121665   -1.095998   -3.021396
     33          6           0       -1.388551    0.541193   -1.164656
     34          6           0        0.061407    1.092655   -3.111768
     35          1           0       -0.413180   -1.519315   -3.773267
     36          1           0       -1.469029   -1.921616   -2.354958
     37          1           0       -2.006567   -0.683132   -3.563048
     38          1           0       -0.876145    1.320811   -0.551377
     39          1           0       -2.281229    1.003972   -1.650344
     40          1           0       -1.738275   -0.273048   -0.485561
     41          1           0       -0.787473    1.571573   -3.656750
     42          1           0        0.583126    1.876349   -2.511694
     43          1           0        0.778225    0.683834   -3.863776
 ---------------------------------------------------------------------
                    Distance matrix (angstroms):
                    1          2          3          4          5
     1  P    0.000000
     2  C    1.820000   0.000000
     3  C    2.708516   1.514068   0.000000
     4  C    2.708585   1.514025   2.489801   0.000000
     5  C    2.708448   1.514041   2.489584   2.489525   0.000000
     6  H    2.897769   2.171507   1.116449   3.464376   2.735910
     7  H    2.897561   2.171515   1.116444   2.736553   3.464221
     8  H    3.719027   2.173939   1.116645   2.762825   2.762894
     9  H    2.897670   2.171538   3.464426   1.116456   2.736177
    10  H    3.719062   2.173865   2.763015   1.116661   2.762530
    11  H    2.898011   2.171570   2.736406   1.116452   3.464241
    12  H    3.718974   2.173890   2.762479   2.762881   1.116676
    13  H    2.897845   2.171499   3.464240   2.735812   1.116448
    14  H    2.897328   2.171493   2.736235   3.464176   1.116457
    15  C    1.820000   2.972047   3.311711   3.311952   4.285595
    16  C    2.708516   3.477595   4.079361   3.123217   4.805348
    17  C    2.708585   3.161353   2.773220   3.580773   4.585754
    18  C    2.708448   4.267904   4.570918   4.759678   5.394628
    19  H    2.897769   3.898533   4.798612   3.515445   5.001886
    20  H    2.897561   3.034427   3.661787   2.278765   4.374281
    21  H    3.719027   4.461084   4.835108   4.035303   5.854720
    22  H    2.897670   3.398931   2.737603   4.204399   4.629949
    23  H    3.719062   4.211868   3.762821   4.409835   5.670516
    24  H    2.898011   2.663826   2.097155   2.877965   4.130576
    25  H    3.718974   5.119510   5.269001   5.438286   6.361752
    26  H    2.897845   4.453221   4.559276   5.251467   5.437605
    27  H    2.897328   4.621425   5.225318   5.034120   5.573562
    28  C    1.820000   2.972048   4.285651   3.311648   3.311702
    29  H    2.383403   2.854629   4.331520   2.870073   2.975928
    30  H    2.383441   3.702372   4.921524   3.783474   4.284155
    31  C    2.728640   3.938541   5.145458   4.612969   3.818128
    32  C    3.306833   4.908858   5.894497   5.643197   5.048934
    33  C    2.812522   3.615007   4.617956   4.665871   3.102393
    34  C    4.049242   4.963437   6.320378   5.371487   4.586831
    35  H    3.816816   5.461789   6.513123   5.948297   5.755890
    36  H    2.895611   4.626420   5.371631   5.497340   4.981625
    37  H    4.249276   5.761351   6.697302   6.603102   5.697744
    38  H    3.052385   3.269997   4.374082   4.230567   2.366185
    39  H    3.865420   4.672474   5.570528   5.763769   4.014684
    40  H    2.311005   3.209662   3.917280   4.481109   2.973603
    41  H    4.866675   5.809630   7.086486   6.365564   5.280250
    42  H    4.226357   4.726544   6.154832   5.003129   4.134051
    43  H    4.479158   5.510802   6.903051   5.688897   5.352009
                    6          7          8          9         10
     6  H    0.000000
     7  H    1.813357   0.000000
     8  H    1.811706   1.811704   0.000000
     9  H    4.319865   3.757359   3.789961   0.000000
    10  H    3.789907   3.116924   2.565189   1.811733   0.000000
    11  H    3.757402   2.506973   3.116260   1.813281   1.811712
    12  H    3.115647   3.789663   2.564890   3.116744   2.564985
    13  H    3.756957   4.319774   3.789828   2.506180   3.115686
    14  H    2.506292   3.757000   3.116744   3.756949   3.789727
    15  C    3.654424   2.821968   4.329082   3.654368   4.329468
    16  C    4.724135   3.549765   4.901595   3.219531   4.114937
    17  C    3.097376   1.900545   3.687425   4.300387   4.345819
    18  C    4.638502   4.100547   5.650324   4.956516   5.808827
    19  H    5.390238   4.453207   5.634495   3.246754   4.556082
    20  H    4.513318   3.195980   4.288919   2.472391   3.151569
    21  H    5.473302   4.104549   5.614635   4.200367   4.921192
    22  H    2.641218   2.057507   3.694543   4.963872   4.913501
    23  H    4.104792   2.754696   4.558828   5.100930   5.121958
    24  H    2.749686   1.078859   2.809962   3.781337   3.449719
    25  H    5.397669   4.603449   6.298257   5.681024   6.445025
    26  H    4.356538   4.186228   5.665992   5.545954   6.253100
    27  H    5.314471   4.906217   6.300553   4.983549   6.138169
    28  C    4.561047   4.560936   5.134719   2.821930   4.329030
    29  H    4.769384   4.721968   4.994613   2.118066   3.755193
    30  H    5.266339   4.979035   5.810842   3.247113   4.853752
    31  C    5.121636   5.577742   6.004905   4.149090   5.541025
    32  C    5.741878   6.131411   6.884906   5.285501   6.664294
    33  C    4.355946   5.274463   5.391370   4.443725   5.433432
    34  C    6.391952   6.822668   7.054558   4.648478   6.191386
    35  H    6.497938   6.622708   7.510510   5.477974   7.011043
    36  H    5.126606   5.496756   6.428682   5.352575   6.537162
    37  H    6.412010   7.015858   7.664007   6.240055   7.579138
    38  H    4.235210   5.186119   4.958904   3.974438   4.828578
    39  H    5.167083   6.257427   6.312650   5.522671   6.488617
    40  H    3.491747   4.513980   4.782236   4.517541   5.267463
    41  H    7.017541   7.645405   7.821732   5.693887   7.154277
    42  H    6.322062   6.764184   6.740361   4.203989   5.673546
    43  H    7.082318   7.271079   7.666933   4.861328   6.559541
                   11         12         13         14         15
    11  H    0.000000
    12  H    3.789867   0.000000
    13  H    3.756864   1.811790   0.000000
    14  H    4.319807   1.811725   1.813362   0.000000
    15  C    2.822641   5.134668   4.561134   4.560711   0.000000
    16  C    2.380838   5.538415   4.877876   5.367241   1.514068
    17  C    2.963062   5.228711   5.172796   4.797868   1.514025
    18  C    4.311794   6.354843   5.573341   5.456609   1.514041
    19  H    3.015247   5.814087   4.825873   5.572769   2.171507
    20  H    1.393686   4.929199   4.488704   5.111917   2.171515
    21  H    3.115368   6.538897   5.979992   6.397292   2.173939
    22  H    3.806240   5.292668   5.331736   4.583638   2.171538
    23  H    3.593559   6.270911   6.230215   5.912975   2.173865
    24  H    2.252849   4.576373   4.810127   4.506493   2.171570
    25  H    4.797974   7.263852   6.576395   6.474873   2.173890
    26  H    4.936222   6.414751   5.724110   5.273922   2.171499
    27  H    4.701103   6.600963   5.531818   5.658950   2.171493
    28  C    3.654380   4.329348   2.822310   3.653872   2.972047
    29  H    3.420827   3.839567   2.260484   3.573818   3.601455
    30  H    3.849594   5.265283   3.822638   4.671520   2.854669
    31  C    5.087584   4.878648   3.235920   3.774913   4.071140
    32  C    5.889014   6.153725   4.641579   4.862962   4.144207
    33  C    5.317112   4.124364   2.742582   2.681954   4.482907
    34  C    5.948344   5.503387   3.707310   4.670975   5.357277
    35  H    6.064594   6.843770   5.267427   5.732708   4.299942
    36  H    5.620983   6.096484   4.818122   4.712968   3.495372
    37  H    6.925845   6.780219   5.266100   5.351215   5.175750
    38  H    5.065102   3.262798   1.848120   2.076393   4.853330
    39  H    6.431595   4.947976   3.644777   3.418059   5.459052
    40  H    5.014720   4.020933   3.016148   2.375696   3.893920
    41  H    6.978047   6.177884   4.438335   5.172469   6.218036
    42  H    5.728765   4.900279   3.111289   4.362858   5.676295
    43  H    6.122076   6.261045   4.459870   5.569424   5.485307
                   16         17         18         19         20
    16  C    0.000000
    17  C    2.489801   0.000000
    18  C    2.489584   2.489525   0.000000
    19  H    1.116449   3.464376   2.735910   0.000000
    20  H    1.116444   2.736553   3.464221   1.813357   0.000000
    21  H    1.116645   2.762825   2.762894   1.811706   1.811704
    22  H    3.464426   1.116456   2.736177   4.319865   3.757359
    23  H    2.763015   1.116661   2.762530   3.789907   3.116924
    24  H    2.736406   1.116452   3.464241   3.757402   2.506973
    25  H    2.762479   2.762881   1.116676   3.115647   3.789663
    26  H    3.464240   2.735812   1.116448   3.756957   4.319774
    27  H    2.736235   3.464176   1.116457   2.506292   3.757000
    28  C    3.161086   4.268004   3.477428   2.663380   3.398579
    29  H    3.506525   4.761277   4.374382   3.020717   3.419731
    30  H    2.730650   4.317535   3.123789   1.946504   3.202541
    31  C    4.555681   5.308316   4.173690   4.024387   4.901873
    32  C    4.776565   5.430202   3.685645   4.218851   5.420349
    33  C    5.270682   5.390903   4.740736   5.011500   5.468959
    34  C    5.541999   6.655346   5.496609   4.814711   5.782064
    35  H    4.639750   5.717085   3.715088   3.893687   5.377074
    36  H    4.402819   4.645945   2.856615   4.069921   5.132419
    37  H    5.885115   6.380483   4.619207   5.330785   6.521224
    38  H    5.489666   5.651655   5.405840   5.277476   5.461388
    39  H    6.304816   6.346340   5.522655   5.996298   6.562975
    40  H    4.938402   4.599971   4.136907   4.892358   5.184561
    41  H    6.539994   7.481143   6.202311   5.827652   6.833862
    42  H    5.752801   6.876022   6.084130   5.090140   5.777397
    43  H    5.428943   6.898215   5.526234   4.536035   5.743364
                   21         22         23         24         25
    21  H    0.000000
    22  H    3.789961   0.000000
    23  H    2.565189   1.811733   0.000000
    24  H    3.116260   1.813281   1.811712   0.000000
    25  H    2.564890   3.116744   2.564985   3.789867   0.000000
    26  H    3.789828   2.506180   3.115686   3.756864   1.811790
    27  H    3.116744   3.756949   3.789727   4.319807   1.811725
    28  C    4.211595   4.621690   5.119505   4.453480   4.460822
    29  H    4.588635   5.207827   5.634186   4.705673   5.300934
    30  H    3.646707   4.816030   4.982054   4.639004   3.958106
    31  C    5.547494   5.392146   6.198524   5.613204   5.228442
    32  C    5.579628   5.419821   6.164628   6.008486   4.649518
    33  C    6.305289   5.228460   6.409038   5.586176   5.855735
    34  C    6.526127   6.836730   7.521941   6.863760   6.486144
    35  H    5.325653   5.875459   6.313071   6.336502   4.516515
    36  H    5.127518   4.514678   5.343682   5.344190   3.837312
    37  H    6.672848   6.241783   7.126207   6.974917   5.551880
    38  H    6.581853   5.565931   6.721589   5.625784   6.509942
    39  H    7.308502   6.071647   7.345279   6.603629   6.624351
    40  H    5.914406   4.281668   5.626095   4.861470   5.242742
    41  H    7.505391   7.540222   8.362045   7.745653   7.203707
    42  H    6.795551   7.107566   7.796999   6.904109   7.086362
    43  H    6.315996   7.211032   7.651808   7.157369   6.401923
                   26         27         28         29         30
    26  H    0.000000
    27  H    1.813362   0.000000
    28  C    3.898535   3.034058   0.000000
    29  H    4.854583   4.000913   1.070000   0.000000
    30  H    3.775415   2.470830   1.070000   1.759418   0.000000
    31  C    4.271816   3.582671   1.540000   2.162429   2.162639
    32  C    3.656156   2.916007   2.475664   3.392892   2.553998
    33  C    4.550792   4.446262   2.475724   2.872077   3.385557
    34  C    5.707081   4.761638   2.475598   2.571706   2.897071
    35  H    3.938730   2.717099   2.720195   3.593561   2.356352
    36  H    2.620969   2.294072   2.720009   3.755498   2.790204
    37  H    4.411330   3.876566   3.463982   4.278409   3.628417
    38  H    5.314920   5.189093   2.720109   2.692918   3.757744
    39  H    5.198848   5.161104   3.464007   3.865512   4.272445
    40  H    3.776656   4.075318   2.720421   3.289527   3.572223
    41  H    6.264557   5.442904   3.463929   3.641267   3.884696
    42  H    6.339689   5.463797   2.720262   2.367958   3.321641
    43  H    5.902833   4.652514   2.719796   2.824957   2.726380
                   31         32         33         34         35
    31  C    0.000000
    32  C    1.514068   0.000000
    33  C    1.514025   2.489801   0.000000
    34  C    1.514041   2.489584   2.489525   0.000000
    35  H    2.171507   1.116449   3.464376   2.735910   0.000000
    36  H    2.171515   1.116444   2.736553   3.464221   1.813357
    37  H    2.173939   1.116645   2.762825   2.762894   1.811706
    38  H    2.171538   3.464426   1.116456   2.736177   4.319865
    39  H    2.173865   2.763015   1.116661   2.762530   3.789907
    40  H    2.171570   2.736406   1.116452   3.464241   3.757402
    41  H    2.173890   2.762479   2.762881   1.116676   3.115647
    42  H    2.171499   3.464240   2.735812   1.116448   3.756957
    43  H    2.171493   2.736235   3.464176   1.116457   2.506292
                   36         37         38         39         40
    36  H    0.000000
    37  H    1.811704   0.000000
    38  H    3.757359   3.789961   0.000000
    39  H    3.116924   2.565189   1.811733   0.000000
    40  H    2.506973   3.116260   1.813281   1.811712   0.000000
    41  H    3.789663   2.564890   3.116744   2.564985   3.789867
    42  H    4.319774   3.789828   2.506180   3.115686   3.756864
    43  H    3.757000   3.116744   3.756949   3.789727   4.319807
                   41         42         43
    41  H    0.000000
    42  H    1.811790   0.000000
    43  H    1.811725   1.813362   0.000000
 Symmetry turned off by external request.
 Stoichiometry    C13H29P
 Framework group  C1[X(C13H29P)]
 Deg. of freedom   123
 Full point group                 C1      NOp   1
 Rotational constants (GHZ):      0.7895652      0.5138300      0.3912517
 Standard basis: def2SVP (5D, 7F)
   345 basis functions,   565 primitive gaussians,   359 cartesian basis functions
    61 alpha electrons       61 beta electrons
       nuclear repulsion energy      1221.4044656378 Hartrees.
 NAtoms=   43 NActive=   43 NUniq=   43 SFac= 1.00D+00 NAtFMM=   60 NAOKFM=F Big=F
 Integral buffers will be    131072 words long.
 Raffenetti 2 integral format.
 Two-electron integral symmetry is turned off.
 Nuclear repulsion after empirical dispersion term =     1221.3516716874 Hartrees.
 Force inversion solution in PCM.
 ------------------------------------------------------------------------------
 Polarizable Continuum Model (PCM)
 =================================
 Model                : C-PCM.
 Atomic radii         : UFF (Universal Force Field).
 Polarization charges : Total charges.
 Charge compensation  : None.
 Solution method      : Matrix inversion.
 Cavity type          : Scaled VdW (van der Waals Surface) (Alpha=1.100).
 Cavity algorithm     : GePol (No added spheres)
                        Default sphere list used, NSphG=   43.
                        Lebedev-Laikov grids with approx.  5.0 points / Ang**2.
                        Smoothing algorithm: Karplus/York (Gamma=1.0000).
                        Polarization charges: spherical gaussians, with
                                              point-specific exponents (IZeta= 3).
                        Self-potential: point-specific (ISelfS= 7).
                        Self-field    : sphere-specific E.n sum rule (ISelfD= 2).
 1st derivatives      : Analytical E(r).r(x)/FMM algorithm (CHGder, D1EAlg=3).
                        Cavity 1st derivative terms included.
 2nd derivatives      : Analytical E(r).r(xy)/FMM algorithm (CHGder, D2EAlg=3).
                        Cavity 2nd derivative terms included.
 Solvent              : DiChloroEthane, Eps=  10.125000 Eps(inf)=   2.087447
 ------------------------------------------------------------------------------
 One-electron integrals computed using PRISM.
   1 Symmetry operations used in ECPInt.
 ECPInt:  NShTT=   15051 NPrTT=   51319 LenC2=   14709 LenP2D=   38038.
 LDataN:  DoStor=T MaxTD1= 4 Len=   56
 NBasis=   345 RedAO= T EigKep=  8.55D-04  NBF=   345
 NBsUse=   345 1.00D-06 EigRej= -1.00D+00 NBFU=   345
 ExpMin= 1.05D-01 ExpMax= 8.00D+03 ExpMxC= 1.20D+03 IAcc=1 IRadAn=         1 AccDes= 0.00D+00
 Harris functional with IExCor=  402 and IRadAn=       1 diagonalized for initial guess.
 HarFok:  IExCor=  402 AccDes= 0.00D+00 IRadAn=         1 IDoV= 1 UseB2=F ITyADJ=14
 ICtDFT=  3500011 ScaDFX=  1.000000  1.000000  1.000000  1.000000
 FoFCou: FMM=F IPFlag=           0 FMFlag=      100000 FMFlg1=           0
         NFxFlg=           0 DoJE=T BraDBF=F KetDBF=T FulRan=T
         wScrn=  0.000000 ICntrl=     500 IOpCl=  0 I1Cent=   200000004 NGrid=           0
         NMat0=    1 NMatS0=      1 NMatT0=    0 NMatD0=    1 NMtDS0=    0 NMtDT0=    0
 Symmetry not used in FoFCou.
 Requested convergence on RMS density matrix=1.00D-08 within 128 cycles.
 Requested convergence on MAX density matrix=1.00D-06.
 Requested convergence on             energy=1.00D-06.
 No special actions if energy rises.
 Inv3:  Mode=1 IEnd=    15595200.
 Iteration    1 A*A^-1 deviation from unit magnitude is 6.88D-15 for   2266.
 Iteration    1 A*A^-1 deviation from orthogonality  is 2.78D-15 for   2253    931.
 Iteration    1 A^-1*A deviation from unit magnitude is 6.66D-15 for   2266.
 Iteration    1 A^-1*A deviation from orthogonality  is 2.66D-15 for   2267   1453.
 Error on total polarization charges =  0.01438
 SCF Done:  E(RB3LYP) =  -853.699955755     A.U. after   12 cycles
            NFock= 12  Conv=0.32D-08     -V/T= 2.0084
 DoSCS=F DFT=T ScalE2(SS,OS)=  1.000000  1.000000
 Range of M.O.s used for correlation:     1   345
 NBasis=   345 NAE=    61 NBE=    61 NFC=     0 NFV=     0
 NROrb=    345 NOA=    61 NOB=    61 NVA=   284 NVB=   284

 **** Warning!!: The largest alpha MO coefficient is  0.12433501D+02

   1 Symmetry operations used in ECPInt.
 ECPInt:  NShTT=   15051 NPrTT=   51319 LenC2=   14709 LenP2D=   38038.
 LDataN:  DoStor=T MaxTD1= 5 Len=  102
 Symmetrizing basis deriv contribution to polar:
 IMax=3 JMax=2 DiffMx= 0.00D+00
 G2DrvN: will do    44 centers at a time, making    1 passes.
 Calling FoFCou, ICntrl=  3107 FMM=F I1Cent=   0 AccDes= 0.00D+00.
 NEqPCM:  Using equilibrium solvation (IEInf=0, Eps=  10.1250, EpsInf=   2.0874)
 G2PCM: DoFxE=T DoFxN=T DoGrad=T DoDP/DQ/DG/TGxP=FFFF NFrqRd=   0 IEInf=0 SqF1=F DoCFld=F IF1Alg=4.
 End of G2Drv F.D. properties file   721 does not exist.
 End of G2Drv F.D. properties file   722 does not exist.
 End of G2Drv F.D. properties file   788 does not exist.
          IDoAtm=1111111111111111111111111111111111111111111
 NEqPCM:  Using equilibrium solvation (IEInf=0, Eps=  10.1250, EpsInf=   2.0874)
          Differentiating once with respect to nuclear coordinates.
          There are   132 degrees of freedom in the 1st order CPHF.  IDoFFX=6 NUNeed=     0.
    129 vectors produced by pass  0 Test12= 1.73D-14 1.00D-09 XBig12= 8.67D-02 9.65D-02.
 AX will form    65 AO Fock derivatives at one time.
    126 vectors produced by pass  1 Test12= 1.73D-14 1.00D-09 XBig12= 2.13D-02 1.55D-02.
    126 vectors produced by pass  2 Test12= 1.73D-14 1.00D-09 XBig12= 1.09D-04 2.13D-03.
    126 vectors produced by pass  3 Test12= 1.73D-14 1.00D-09 XBig12= 2.49D-07 7.19D-05.
    126 vectors produced by pass  4 Test12= 1.73D-14 1.00D-09 XBig12= 3.04D-10 1.92D-06.
     52 vectors produced by pass  5 Test12= 1.73D-14 1.00D-09 XBig12= 1.97D-13 3.60D-08.
      2 vectors produced by pass  6 Test12= 1.73D-14 1.00D-09 XBig12= 2.18D-16 1.15D-09.
 InvSVY:  IOpt=1 It=  1 EMax= 4.44D-16
 Solved reduced A of dimension   687 with   132 vectors.
 End of Minotr F.D. properties file   721 does not exist.
 End of Minotr F.D. properties file   722 does not exist.
 End of Minotr F.D. properties file   788 does not exist.

 **********************************************************************

            Population analysis using the SCF density.

 **********************************************************************

 Alpha  occ. eigenvalues --  -77.01473 -10.19053 -10.18889 -10.18661 -10.18087
 Alpha  occ. eigenvalues --  -10.18080 -10.17829 -10.17823 -10.17532 -10.17394
 Alpha  occ. eigenvalues --  -10.17349 -10.17279 -10.16665 -10.15946  -6.51523
 Alpha  occ. eigenvalues --   -4.68143  -4.68106  -4.67561  -0.83846  -0.81736
 Alpha  occ. eigenvalues --   -0.80061  -0.71072  -0.69112  -0.68824  -0.67544
 Alpha  occ. eigenvalues --   -0.67086  -0.66471  -0.65958  -0.60841  -0.53734
 Alpha  occ. eigenvalues --   -0.53424  -0.50841  -0.47440  -0.47161  -0.46182
 Alpha  occ. eigenvalues --   -0.45609  -0.44431  -0.44198  -0.42691  -0.41634
 Alpha  occ. eigenvalues --   -0.41554  -0.40560  -0.39934  -0.39001  -0.38382
 Alpha  occ. eigenvalues --   -0.37513  -0.37483  -0.36720  -0.36650  -0.35873
 Alpha  occ. eigenvalues --   -0.35203  -0.34194  -0.33484  -0.33170  -0.32060
 Alpha  occ. eigenvalues --   -0.31807  -0.31705  -0.30119  -0.29469  -0.27210
 Alpha  occ. eigenvalues --   -0.17836
 Alpha virt. eigenvalues --    0.04401   0.05625   0.06929   0.07443   0.08123
 Alpha virt. eigenvalues --    0.08876   0.09515   0.09689   0.10172   0.10821
 Alpha virt. eigenvalues --    0.11115   0.11596   0.11814   0.11940   0.12584
 Alpha virt. eigenvalues --    0.13654   0.14082   0.14301   0.15036   0.15136
 Alpha virt. eigenvalues --    0.15494   0.16495   0.16675   0.17283   0.17888
 Alpha virt. eigenvalues --    0.18317   0.18948   0.19191   0.20309   0.20563
 Alpha virt. eigenvalues --    0.21678   0.22330   0.23002   0.23996   0.24616
 Alpha virt. eigenvalues --    0.25051   0.26451   0.26974   0.27718   0.28779
 Alpha virt. eigenvalues --    0.29655   0.30639   0.37235   0.38623   0.39027
 Alpha virt. eigenvalues --    0.40464   0.40636   0.41253   0.42145   0.42503
 Alpha virt. eigenvalues --    0.42827   0.44543   0.45333   0.46474   0.49300
 Alpha virt. eigenvalues --    0.50561   0.51093   0.53306   0.54447   0.55418
 Alpha virt. eigenvalues --    0.55994   0.57177   0.59185   0.59651   0.60859
 Alpha virt. eigenvalues --    0.60960   0.61277   0.61856   0.62267   0.62637
 Alpha virt. eigenvalues --    0.63058   0.63520   0.63840   0.64229   0.64821
 Alpha virt. eigenvalues --    0.65302   0.65636   0.66194   0.66615   0.66842
 Alpha virt. eigenvalues --    0.67414   0.67897   0.68443   0.68720   0.69140
 Alpha virt. eigenvalues --    0.69492   0.69801   0.70007   0.70698   0.70890
 Alpha virt. eigenvalues --    0.71748   0.72014   0.72392   0.73140   0.73526
 Alpha virt. eigenvalues --    0.73604   0.74381   0.75108   0.75557   0.76716
 Alpha virt. eigenvalues --    0.76901   0.77441   0.77648   0.77949   0.79714
 Alpha virt. eigenvalues --    0.80662   0.82393   0.83011   0.83127   0.83902
 Alpha virt. eigenvalues --    0.85113   0.87760   0.88361   0.91844   0.93266
 Alpha virt. eigenvalues --    0.94377   0.95778   0.97314   1.01608   1.03104
 Alpha virt. eigenvalues --    1.05289   1.08353   1.09820   1.10943   1.11503
 Alpha virt. eigenvalues --    1.12317   1.13136   1.15955   1.16988   1.17838
 Alpha virt. eigenvalues --    1.18493   1.20505   1.21492   1.23750   1.25144
 Alpha virt. eigenvalues --    1.28112   1.28768   1.29863   1.31184   1.35326
 Alpha virt. eigenvalues --    1.37520   1.39166   1.42667   1.49193   1.49991
 Alpha virt. eigenvalues --    1.51164   1.52201   1.52640   1.53017   1.53655
 Alpha virt. eigenvalues --    1.54502   1.56439   1.57400   1.57960   1.58798
 Alpha virt. eigenvalues --    1.59433   1.60275   1.60664   1.61177   1.62194
 Alpha virt. eigenvalues --    1.64889   1.66281   1.66379   1.67870   1.70131
 Alpha virt. eigenvalues --    1.72400   1.73929   1.74748   1.75763   1.76122
 Alpha virt. eigenvalues --    1.76352   1.78016   1.78395   1.78690   1.79979
 Alpha virt. eigenvalues --    1.80401   1.80841   1.81449   1.82488   1.82896
 Alpha virt. eigenvalues --    1.83465   1.83741   1.84640   1.84932   1.85533
 Alpha virt. eigenvalues --    1.86366   1.86606   1.86982   1.87395   1.88177
 Alpha virt. eigenvalues --    1.89527   1.90222   1.90867   1.91209   1.92024
 Alpha virt. eigenvalues --    1.92551   1.93749   1.94985   1.95255   1.95591
 Alpha virt. eigenvalues --    1.95816   1.98418   1.99912   2.01357   2.01676
 Alpha virt. eigenvalues --    2.02214   2.03364   2.05411   2.06926   2.08439
 Alpha virt. eigenvalues --    2.11902   2.13548   2.14482   2.15454   2.15488
 Alpha virt. eigenvalues --    2.17416   2.17617   2.19258   2.19860   2.21252
 Alpha virt. eigenvalues --    2.23047   2.23595   2.24771   2.26079   2.30854
 Alpha virt. eigenvalues --    2.31988   2.33118   2.35361   2.37564   2.38352
 Alpha virt. eigenvalues --    2.38966   2.40325   2.41205   2.42083   2.43384
 Alpha virt. eigenvalues --    2.44043   2.44673   2.46686   2.47353   2.51615
 Alpha virt. eigenvalues --    2.52775   2.54109   2.54930   2.58727   2.60383
 Alpha virt. eigenvalues --    2.61373   2.61580   2.63016   2.64337   2.64760
 Alpha virt. eigenvalues --    2.64976   2.65871   2.66126   2.69877   2.73070
 Alpha virt. eigenvalues --    2.76143   2.79641   2.80631   2.85081   2.86094
 Alpha virt. eigenvalues --    2.86351   2.86969   2.87688   2.88074   2.89221
 Alpha virt. eigenvalues --    2.90296   2.92498   2.92799   2.93645   2.94657
 Alpha virt. eigenvalues --    2.95201   2.96065   2.97042   2.97717   2.99991
 Alpha virt. eigenvalues --    3.01831   3.02512   3.04183   3.06239   3.06734
 Alpha virt. eigenvalues --    3.10330   3.16169   3.20070   3.40811
          Condensed to atoms (all electrons):
               1          2          3          4          5          6
     1  P   14.710117   0.266442  -0.079493  -0.048448  -0.090104   0.012528
     2  C    0.266442   5.233175   0.394657   0.326838   0.407241  -0.023257
     3  C   -0.079493   0.394657   4.664722  -0.050118  -0.040245   0.355111
     4  C   -0.048448   0.326838  -0.050118   4.685424  -0.060845   0.011998
     5  C   -0.090104   0.407241  -0.040245  -0.060845   4.603161  -0.009723
     6  H    0.012528  -0.023257   0.355111   0.011998  -0.009723   0.692043
     7  H   -0.007003  -0.030131   0.425965  -0.009614   0.010259  -0.020851
     8  H    0.009357  -0.020824   0.352906  -0.009193  -0.011740  -0.024286
     9  H   -0.006367  -0.025251   0.009445   0.390266  -0.006977  -0.000570
    10  H    0.008243  -0.006608  -0.010105   0.325303  -0.008841  -0.000530
    11  H   -0.007980  -0.027195  -0.006671   0.399241   0.009320   0.000622
    12  H    0.010519  -0.014269  -0.011238  -0.010820   0.358785  -0.001513
    13  H   -0.015775  -0.014421   0.009451  -0.006775   0.379320   0.000211
    14  H   -0.000539  -0.019352  -0.007219   0.010163   0.380118   0.007205
    15  C    0.252522  -0.011739  -0.004310  -0.013546   0.005797  -0.004303
    16  C   -0.041777  -0.013138   0.000484  -0.012775  -0.000602   0.000262
    17  C   -0.083175   0.002637  -0.047898  -0.002517  -0.000512   0.005109
    18  C   -0.102116   0.005357  -0.000888  -0.000417  -0.000148  -0.000084
    19  H   -0.010852  -0.000717  -0.000002   0.002113   0.000018   0.000010
    20  H    0.000658  -0.005151   0.000439  -0.009461  -0.000317  -0.000116
    21  H    0.007567   0.000701  -0.000018   0.000151   0.000023  -0.000016
    22  H    0.012452  -0.007457   0.001532   0.000901  -0.000208   0.001096
    23  H    0.008824   0.000322   0.003626   0.000045   0.000023  -0.000106
    24  H   -0.012166   0.012833  -0.075528   0.000385  -0.000632  -0.001368
    25  H    0.011269  -0.000226   0.000013   0.000022   0.000004   0.000007
    26  H    0.011921  -0.000335  -0.000080   0.000071  -0.000017   0.000073
    27  H   -0.010784   0.000131   0.000054  -0.000006   0.000004  -0.000008
    28  C    0.276427  -0.009520   0.004895  -0.016165   0.000114  -0.000078
    29  H    0.001214  -0.013875   0.000255   0.002582  -0.002997   0.000064
    30  H   -0.004878   0.000504  -0.000202   0.000331   0.000219   0.000012
    31  C   -0.079229   0.001312  -0.000109  -0.000164  -0.000828  -0.000087
    32  C   -0.016639   0.000135   0.000000  -0.000053  -0.000005  -0.000010
    33  C   -0.112117  -0.001796   0.000221  -0.000666   0.003022  -0.000636
    34  C    0.011207  -0.000277   0.000004   0.000029  -0.000234   0.000001
    35  H   -0.000334  -0.000012   0.000000   0.000004   0.000001   0.000000
    36  H    0.018347  -0.000104  -0.000003   0.000016  -0.000034   0.000014
    37  H   -0.000454   0.000011  -0.000001   0.000001   0.000003   0.000000
    38  H    0.008069  -0.006183   0.000061   0.000096   0.001579  -0.000018
    39  H    0.003055   0.000348   0.000002   0.000016  -0.000086   0.000024
    40  H    0.066306  -0.009562  -0.000288   0.000644   0.000221   0.000741
    41  H   -0.000620   0.000010  -0.000000   0.000000   0.000007  -0.000000
    42  H    0.000974  -0.000099   0.000000  -0.000001  -0.000206   0.000000
    43  H    0.000555  -0.000007  -0.000000   0.000004   0.000002   0.000000
               7          8          9         10         11         12
     1  P   -0.007003   0.009357  -0.006367   0.008243  -0.007980   0.010519
     2  C   -0.030131  -0.020824  -0.025251  -0.006608  -0.027195  -0.014269
     3  C    0.425965   0.352906   0.009445  -0.010105  -0.006671  -0.011238
     4  C   -0.009614  -0.009193   0.390266   0.325303   0.399241  -0.010820
     5  C    0.010259  -0.011740  -0.006977  -0.008841   0.009320   0.358785
     6  H   -0.020851  -0.024286  -0.000570  -0.000530   0.000622  -0.001513
     7  H    0.740851  -0.015056   0.000352  -0.000783   0.004200   0.000248
     8  H   -0.015056   0.704014   0.000070   0.006786  -0.001637   0.007841
     9  H    0.000352   0.000070   0.674075  -0.023093  -0.035847  -0.001184
    10  H   -0.000783   0.006786  -0.023093   0.718066  -0.009232   0.007743
    11  H    0.004200  -0.001637  -0.035847  -0.009232   0.674741   0.000217
    12  H    0.000248   0.007841  -0.001184   0.007743   0.000217   0.685420
    13  H   -0.000751   0.000172   0.005765  -0.001105   0.000138  -0.018437
    14  H    0.000129  -0.001333   0.000174  -0.000096  -0.000577  -0.021750
    15  C   -0.000553   0.000285  -0.002115   0.000787   0.003852  -0.000174
    16  C    0.000068   0.000053   0.000155   0.000863  -0.026009   0.000011
    17  C   -0.054858   0.001309   0.000254   0.000054  -0.003133   0.000008
    18  C   -0.000776   0.000024  -0.000034   0.000024  -0.000308   0.000005
    19  H   -0.000128  -0.000000  -0.000151  -0.000092  -0.000684   0.000000
    20  H   -0.001549   0.000144   0.005739  -0.001247  -0.011133   0.000005
    21  H    0.000210  -0.000009  -0.000032   0.000016   0.000779  -0.000001
    22  H    0.007858   0.000441  -0.000018  -0.000058   0.000061   0.000004
    23  H    0.000694  -0.000216  -0.000003  -0.000010  -0.000134  -0.000001
    24  H   -0.033169   0.004599  -0.000331  -0.000149   0.004566   0.000010
    25  H    0.000004  -0.000001   0.000001  -0.000002   0.000010  -0.000000
    26  H   -0.000040   0.000004   0.000002  -0.000003   0.000035   0.000000
    27  H    0.000028  -0.000001  -0.000000   0.000000  -0.000006  -0.000000
    28  C    0.000049  -0.000207  -0.001211   0.000616  -0.000161  -0.000470
    29  H   -0.000012  -0.000010   0.007472  -0.001207   0.000264  -0.000264
    30  H   -0.000005   0.000009  -0.000394  -0.000024   0.000165   0.000018
    31  C    0.000009   0.000005   0.000034   0.000037  -0.000083   0.000093
    32  C    0.000000   0.000000  -0.000015   0.000001   0.000002   0.000003
    33  C    0.000050  -0.000017  -0.000039   0.000039   0.000004   0.000878
    34  C   -0.000000  -0.000000  -0.000015  -0.000002   0.000001   0.000005
    35  H   -0.000000  -0.000000   0.000001  -0.000000  -0.000000  -0.000000
    36  H   -0.000003   0.000000   0.000001  -0.000000   0.000001   0.000001
    37  H   -0.000000   0.000000  -0.000000  -0.000000  -0.000000  -0.000000
    38  H   -0.000006   0.000001  -0.000093  -0.000018  -0.000000   0.000147
    39  H   -0.000001  -0.000000   0.000006  -0.000001  -0.000000  -0.000052
    40  H   -0.000040  -0.000014   0.000018  -0.000039   0.000014  -0.000008
    41  H   -0.000000   0.000000   0.000000   0.000000  -0.000000  -0.000000
    42  H   -0.000000   0.000000  -0.000054  -0.000001   0.000002   0.000012
    43  H   -0.000000   0.000000   0.000005  -0.000000   0.000000  -0.000000
              13         14         15         16         17         18
     1  P   -0.015775  -0.000539   0.252522  -0.041777  -0.083175  -0.102116
     2  C   -0.014421  -0.019352  -0.011739  -0.013138   0.002637   0.005357
     3  C    0.009451  -0.007219  -0.004310   0.000484  -0.047898  -0.000888
     4  C   -0.006775   0.010163  -0.013546  -0.012775  -0.002517  -0.000417
     5  C    0.379320   0.380118   0.005797  -0.000602  -0.000512  -0.000148
     6  H    0.000211   0.007205  -0.004303   0.000262   0.005109  -0.000084
     7  H   -0.000751   0.000129  -0.000553   0.000068  -0.054858  -0.000776
     8  H    0.000172  -0.001333   0.000285   0.000053   0.001309   0.000024
     9  H    0.005765   0.000174  -0.002115   0.000155   0.000254  -0.000034
    10  H   -0.001105  -0.000096   0.000787   0.000863   0.000054   0.000024
    11  H    0.000138  -0.000577   0.003852  -0.026009  -0.003133  -0.000308
    12  H   -0.018437  -0.021750  -0.000174   0.000011   0.000008   0.000005
    13  H    0.670610  -0.032529   0.000025   0.000020   0.000049   0.000005
    14  H   -0.032529   0.661962  -0.000093   0.000026   0.000008  -0.000006
    15  C    0.000025  -0.000093   5.202945   0.336261   0.399671   0.410136
    16  C    0.000020   0.000026   0.336261   4.672493  -0.051855  -0.056990
    17  C    0.000049   0.000008   0.399671  -0.051855   4.670831  -0.041733
    18  C    0.000005  -0.000006   0.410136  -0.056990  -0.041733   4.610583
    19  H   -0.000011   0.000001  -0.024885   0.379927   0.008945  -0.006426
    20  H    0.000007   0.000006  -0.032034   0.392052  -0.007841   0.009784
    21  H    0.000000  -0.000001  -0.013105   0.338088  -0.008583  -0.008348
    22  H    0.000003   0.000005  -0.024651   0.012084   0.375383  -0.008648
    23  H   -0.000001   0.000000  -0.007686  -0.013377   0.338239  -0.013025
    24  H    0.000073  -0.000002  -0.012318  -0.007218   0.404817   0.009523
    25  H    0.000000   0.000000  -0.017766  -0.007658  -0.011352   0.364045
    26  H    0.000001   0.000002  -0.022644   0.011746  -0.009191   0.363385
    27  H   -0.000005  -0.000001  -0.018158  -0.008044   0.009711   0.378433
    28  C    0.010833  -0.000936  -0.007731  -0.017316   0.004923  -0.000161
    29  H    0.002332   0.000369  -0.002166   0.001342  -0.000265  -0.000019
    30  H   -0.000163  -0.000045  -0.008660  -0.000153   0.000200  -0.002495
    31  C   -0.005619  -0.000025   0.004859   0.000269  -0.000108  -0.000652
    32  C   -0.000004  -0.000045  -0.000327  -0.000290  -0.000024  -0.001152
    33  C   -0.006527  -0.005114   0.002944  -0.000253   0.000036   0.000057
    34  C    0.000271   0.000030  -0.000203   0.000009   0.000003  -0.000039
    35  H    0.000010   0.000002   0.000077   0.000023  -0.000006  -0.001204
    36  H   -0.000002  -0.000008  -0.004431   0.000408   0.000005   0.002146
    37  H   -0.000006   0.000001   0.000049   0.000000   0.000001   0.000136
    38  H   -0.001125   0.001090  -0.000041   0.000003  -0.000004   0.000012
    39  H    0.000409   0.000555  -0.000064   0.000005  -0.000000   0.000002
    40  H   -0.000338   0.002468  -0.000677   0.000149  -0.000084  -0.000741
    41  H   -0.000022   0.000001   0.000005   0.000001  -0.000000   0.000001
    42  H    0.000471  -0.000042  -0.000010   0.000003   0.000000   0.000001
    43  H   -0.000036  -0.000001  -0.000025  -0.000001  -0.000000  -0.000008
              19         20         21         22         23         24
     1  P   -0.010852   0.000658   0.007567   0.012452   0.008824  -0.012166
     2  C   -0.000717  -0.005151   0.000701  -0.007457   0.000322   0.012833
     3  C   -0.000002   0.000439  -0.000018   0.001532   0.003626  -0.075528
     4  C    0.002113  -0.009461   0.000151   0.000901   0.000045   0.000385
     5  C    0.000018  -0.000317   0.000023  -0.000208   0.000023  -0.000632
     6  H    0.000010  -0.000116  -0.000016   0.001096  -0.000106  -0.001368
     7  H   -0.000128  -0.001549   0.000210   0.007858   0.000694  -0.033169
     8  H   -0.000000   0.000144  -0.000009   0.000441  -0.000216   0.004599
     9  H   -0.000151   0.005739  -0.000032  -0.000018  -0.000003  -0.000331
    10  H   -0.000092  -0.001247   0.000016  -0.000058  -0.000010  -0.000149
    11  H   -0.000684  -0.011133   0.000779   0.000061  -0.000134   0.004566
    12  H    0.000000   0.000005  -0.000001   0.000004  -0.000001   0.000010
    13  H   -0.000011   0.000007   0.000000   0.000003  -0.000001   0.000073
    14  H    0.000001   0.000006  -0.000001   0.000005   0.000000  -0.000002
    15  C   -0.024885  -0.032034  -0.013105  -0.024651  -0.007686  -0.012318
    16  C    0.379927   0.392052   0.338088   0.012084  -0.013377  -0.007218
    17  C    0.008945  -0.007841  -0.008583   0.375383   0.338239   0.404817
    18  C   -0.006426   0.009784  -0.008348  -0.008648  -0.013025   0.009523
    19  H    0.678021  -0.016958  -0.022395  -0.000540   0.000102   0.000480
    20  H   -0.016958   0.708458  -0.018944   0.000283  -0.001287   0.006547
    21  H   -0.022395  -0.018944   0.719694  -0.000564   0.008157  -0.001403
    22  H   -0.000540   0.000283  -0.000564   0.680348  -0.026456  -0.042353
    23  H    0.000102  -0.001287   0.008157  -0.026456   0.701450  -0.007642
    24  H    0.000480   0.006547  -0.001403  -0.042353  -0.007642   0.710364
    25  H   -0.000870   0.000184   0.005940  -0.001076   0.007997   0.000204
    26  H    0.000214  -0.000653  -0.000474   0.008402  -0.001747   0.000181
    27  H    0.005574   0.000134  -0.000750  -0.000024   0.000186  -0.000635
    28  C   -0.002073  -0.001712   0.001030  -0.000264  -0.000151  -0.000062
    29  H   -0.000115   0.000205  -0.000114   0.000029   0.000009   0.000000
    30  H    0.005815   0.000083  -0.001041   0.000041  -0.000024   0.000007
    31  C    0.000385   0.000028   0.000013  -0.000024   0.000003   0.000000
    32  C   -0.000321   0.000015   0.000016  -0.000024   0.000001   0.000002
    33  C   -0.000065  -0.000012   0.000008  -0.000108   0.000002  -0.000015
    34  C    0.000020  -0.000001  -0.000001   0.000000  -0.000000  -0.000000
    35  H   -0.000139  -0.000001  -0.000000   0.000001   0.000000   0.000000
    36  H    0.000063  -0.000013  -0.000032   0.000069  -0.000008   0.000000
    37  H    0.000007  -0.000000  -0.000000   0.000000  -0.000000  -0.000000
    38  H    0.000003   0.000001  -0.000000   0.000004  -0.000000   0.000002
    39  H    0.000002   0.000000  -0.000000   0.000002  -0.000000   0.000000
    40  H    0.000007  -0.000007  -0.000005   0.000141  -0.000001   0.000003
    41  H   -0.000000  -0.000000  -0.000000   0.000000   0.000000  -0.000000
    42  H    0.000010   0.000000  -0.000000   0.000000  -0.000000   0.000000
    43  H    0.000006   0.000001  -0.000001   0.000000   0.000000   0.000000
              25         26         27         28         29         30
     1  P    0.011269   0.011921  -0.010784   0.276427   0.001214  -0.004878
     2  C   -0.000226  -0.000335   0.000131  -0.009520  -0.013875   0.000504
     3  C    0.000013  -0.000080   0.000054   0.004895   0.000255  -0.000202
     4  C    0.000022   0.000071  -0.000006  -0.016165   0.002582   0.000331
     5  C    0.000004  -0.000017   0.000004   0.000114  -0.002997   0.000219
     6  H    0.000007   0.000073  -0.000008  -0.000078   0.000064   0.000012
     7  H    0.000004  -0.000040   0.000028   0.000049  -0.000012  -0.000005
     8  H   -0.000001   0.000004  -0.000001  -0.000207  -0.000010   0.000009
     9  H    0.000001   0.000002  -0.000000  -0.001211   0.007472  -0.000394
    10  H   -0.000002  -0.000003   0.000000   0.000616  -0.001207  -0.000024
    11  H    0.000010   0.000035  -0.000006  -0.000161   0.000264   0.000165
    12  H   -0.000000   0.000000  -0.000000  -0.000470  -0.000264   0.000018
    13  H    0.000000   0.000001  -0.000005   0.010833   0.002332  -0.000163
    14  H    0.000000   0.000002  -0.000001  -0.000936   0.000369  -0.000045
    15  C   -0.017766  -0.022644  -0.018158  -0.007731  -0.002166  -0.008660
    16  C   -0.007658   0.011746  -0.008044  -0.017316   0.001342  -0.000153
    17  C   -0.011352  -0.009191   0.009711   0.004923  -0.000265   0.000200
    18  C    0.364045   0.363385   0.378433  -0.000161  -0.000019  -0.002495
    19  H   -0.000870   0.000214   0.005574  -0.002073  -0.000115   0.005815
    20  H    0.000184  -0.000653   0.000134  -0.001712   0.000205   0.000083
    21  H    0.005940  -0.000474  -0.000750   0.001030  -0.000114  -0.001041
    22  H   -0.001076   0.008402  -0.000024  -0.000264   0.000029   0.000041
    23  H    0.007997  -0.001747   0.000186  -0.000151   0.000009  -0.000024
    24  H    0.000204   0.000181  -0.000635  -0.000062   0.000000   0.000007
    25  H    0.684305  -0.022487  -0.020667  -0.000366   0.000026  -0.000152
    26  H   -0.022487   0.673999  -0.027479  -0.001322   0.000035   0.000439
    27  H   -0.020667  -0.027479   0.666366   0.005041  -0.000169   0.001660
    28  C   -0.000366  -0.001322   0.005041   4.968429   0.330489   0.343925
    29  H    0.000026   0.000035  -0.000169   0.330489   0.680211  -0.003445
    30  H   -0.000152   0.000439   0.001660   0.343925  -0.003445   0.662580
    31  C    0.000028   0.000013  -0.002603   0.332727  -0.019983  -0.017723
    32  C    0.000126  -0.002214   0.002947  -0.067126   0.008395  -0.008581
    33  C   -0.000006  -0.000402   0.000218  -0.074148  -0.006905   0.008307
    34  C    0.000000  -0.000001   0.000051  -0.057847  -0.009154  -0.005197
    35  H    0.000024   0.000034   0.003343  -0.010299   0.000474   0.006590
    36  H   -0.000198   0.005194   0.004131  -0.009105   0.000344  -0.001588
    37  H   -0.000007   0.000016  -0.000191   0.011481  -0.000548   0.000337
    38  H    0.000000   0.000002  -0.000014  -0.007899   0.003450   0.000039
    39  H    0.000000   0.000017  -0.000007   0.014033  -0.000048  -0.000498
    40  H    0.000019   0.000315  -0.000096  -0.027994   0.001236   0.000784
    41  H    0.000000   0.000000  -0.000005   0.010214   0.000316  -0.000161
    42  H   -0.000000   0.000000  -0.000001  -0.012958   0.008701  -0.000601
    43  H    0.000000   0.000002  -0.000008  -0.005242   0.000228   0.004891
              31         32         33         34         35         36
     1  P   -0.079229  -0.016639  -0.112117   0.011207  -0.000334   0.018347
     2  C    0.001312   0.000135  -0.001796  -0.000277  -0.000012  -0.000104
     3  C   -0.000109   0.000000   0.000221   0.000004   0.000000  -0.000003
     4  C   -0.000164  -0.000053  -0.000666   0.000029   0.000004   0.000016
     5  C   -0.000828  -0.000005   0.003022  -0.000234   0.000001  -0.000034
     6  H   -0.000087  -0.000010  -0.000636   0.000001   0.000000   0.000014
     7  H    0.000009   0.000000   0.000050  -0.000000  -0.000000  -0.000003
     8  H    0.000005   0.000000  -0.000017  -0.000000  -0.000000   0.000000
     9  H    0.000034  -0.000015  -0.000039  -0.000015   0.000001   0.000001
    10  H    0.000037   0.000001   0.000039  -0.000002  -0.000000  -0.000000
    11  H   -0.000083   0.000002   0.000004   0.000001  -0.000000   0.000001
    12  H    0.000093   0.000003   0.000878   0.000005  -0.000000   0.000001
    13  H   -0.005619  -0.000004  -0.006527   0.000271   0.000010  -0.000002
    14  H   -0.000025  -0.000045  -0.005114   0.000030   0.000002  -0.000008
    15  C    0.004859  -0.000327   0.002944  -0.000203   0.000077  -0.004431
    16  C    0.000269  -0.000290  -0.000253   0.000009   0.000023   0.000408
    17  C   -0.000108  -0.000024   0.000036   0.000003  -0.000006   0.000005
    18  C   -0.000652  -0.001152   0.000057  -0.000039  -0.001204   0.002146
    19  H    0.000385  -0.000321  -0.000065   0.000020  -0.000139   0.000063
    20  H    0.000028   0.000015  -0.000012  -0.000001  -0.000001  -0.000013
    21  H    0.000013   0.000016   0.000008  -0.000001  -0.000000  -0.000032
    22  H   -0.000024  -0.000024  -0.000108   0.000000   0.000001   0.000069
    23  H    0.000003   0.000001   0.000002  -0.000000   0.000000  -0.000008
    24  H    0.000000   0.000002  -0.000015  -0.000000   0.000000   0.000000
    25  H    0.000028   0.000126  -0.000006   0.000000   0.000024  -0.000198
    26  H    0.000013  -0.002214  -0.000402  -0.000001   0.000034   0.005194
    27  H   -0.002603   0.002947   0.000218   0.000051   0.003343   0.004131
    28  C    0.332727  -0.067126  -0.074148  -0.057847  -0.010299  -0.009105
    29  H   -0.019983   0.008395  -0.006905  -0.009154   0.000474   0.000344
    30  H   -0.017723  -0.008581   0.008307  -0.005197   0.006590  -0.001588
    31  C    4.961262   0.420179   0.448073   0.420518  -0.016578  -0.020866
    32  C    0.420179   4.619237  -0.056797  -0.053124   0.367740   0.376472
    33  C    0.448073  -0.056797   4.716618  -0.056385   0.009402  -0.009998
    34  C    0.420518  -0.053124  -0.056385   4.573951  -0.007278   0.008861
    35  H   -0.016578   0.367740   0.009402  -0.007278   0.684755  -0.026611
    36  H   -0.020866   0.376472  -0.009998   0.008861  -0.026611   0.657167
    37  H   -0.021682   0.363746  -0.006728  -0.007125  -0.023396  -0.018785
    38  H   -0.020393   0.010215   0.374976  -0.008233  -0.000646   0.000217
    39  H   -0.027448  -0.011284   0.338284  -0.005142   0.000195  -0.000390
    40  H   -0.009141  -0.006338   0.359796   0.008203   0.000179   0.005507
    41  H   -0.021989  -0.006977  -0.007109   0.373051  -0.000811   0.000073
    42  H   -0.014880   0.009755  -0.008127   0.371218   0.000033  -0.000589
    43  H   -0.023006  -0.007426   0.009856   0.369392   0.006104   0.000082
              37         38         39         40         41         42
     1  P   -0.000454   0.008069   0.003055   0.066306  -0.000620   0.000974
     2  C    0.000011  -0.006183   0.000348  -0.009562   0.000010  -0.000099
     3  C   -0.000001   0.000061   0.000002  -0.000288  -0.000000   0.000000
     4  C    0.000001   0.000096   0.000016   0.000644   0.000000  -0.000001
     5  C    0.000003   0.001579  -0.000086   0.000221   0.000007  -0.000206
     6  H    0.000000  -0.000018   0.000024   0.000741  -0.000000   0.000000
     7  H   -0.000000  -0.000006  -0.000001  -0.000040  -0.000000  -0.000000
     8  H    0.000000   0.000001  -0.000000  -0.000014   0.000000   0.000000
     9  H   -0.000000  -0.000093   0.000006   0.000018   0.000000  -0.000054
    10  H   -0.000000  -0.000018  -0.000001  -0.000039   0.000000  -0.000001
    11  H   -0.000000  -0.000000  -0.000000   0.000014  -0.000000   0.000002
    12  H   -0.000000   0.000147  -0.000052  -0.000008  -0.000000   0.000012
    13  H   -0.000006  -0.001125   0.000409  -0.000338  -0.000022   0.000471
    14  H    0.000001   0.001090   0.000555   0.002468   0.000001  -0.000042
    15  C    0.000049  -0.000041  -0.000064  -0.000677   0.000005  -0.000010
    16  C    0.000000   0.000003   0.000005   0.000149   0.000001   0.000003
    17  C    0.000001  -0.000004  -0.000000  -0.000084  -0.000000   0.000000
    18  C    0.000136   0.000012   0.000002  -0.000741   0.000001   0.000001
    19  H    0.000007   0.000003   0.000002   0.000007  -0.000000   0.000010
    20  H   -0.000000   0.000001   0.000000  -0.000007  -0.000000   0.000000
    21  H   -0.000000  -0.000000  -0.000000  -0.000005  -0.000000  -0.000000
    22  H    0.000000   0.000004   0.000002   0.000141   0.000000   0.000000
    23  H   -0.000000  -0.000000  -0.000000  -0.000001   0.000000  -0.000000
    24  H   -0.000000   0.000002   0.000000   0.000003  -0.000000   0.000000
    25  H   -0.000007   0.000000   0.000000   0.000019   0.000000  -0.000000
    26  H    0.000016   0.000002   0.000017   0.000315   0.000000   0.000000
    27  H   -0.000191  -0.000014  -0.000007  -0.000096  -0.000005  -0.000001
    28  C    0.011481  -0.007899   0.014033  -0.027994   0.010214  -0.012958
    29  H   -0.000548   0.003450  -0.000048   0.001236   0.000316   0.008701
    30  H    0.000337   0.000039  -0.000498   0.000784  -0.000161  -0.000601
    31  C   -0.021682  -0.020393  -0.027448  -0.009141  -0.021989  -0.014880
    32  C    0.363746   0.010215  -0.011284  -0.006338  -0.006977   0.009755
    33  C   -0.006728   0.374976   0.338284   0.359796  -0.007109  -0.008127
    34  C   -0.007125  -0.008233  -0.005142   0.008203   0.373051   0.371218
    35  H   -0.023396  -0.000646   0.000195   0.000179  -0.000811   0.000033
    36  H   -0.018785   0.000217  -0.000390   0.005507   0.000073  -0.000589
    37  H    0.690846   0.000051   0.006228  -0.000935   0.005389  -0.000008
    38  H    0.000051   0.692983  -0.017608  -0.031854  -0.000892   0.006597
    39  H    0.006228  -0.017608   0.724887  -0.013467   0.005418  -0.001071
    40  H   -0.000935  -0.031854  -0.013467   0.621332   0.000076   0.000187
    41  H    0.005389  -0.000892   0.005418   0.000076   0.688461  -0.023980
    42  H   -0.000008   0.006597  -0.001071   0.000187  -0.023980   0.684108
    43  H   -0.000911   0.000128   0.000058  -0.000562  -0.024822  -0.024193
              43
     1  P    0.000555
     2  C   -0.000007
     3  C   -0.000000
     4  C    0.000004
     5  C    0.000002
     6  H    0.000000
     7  H   -0.000000
     8  H    0.000000
     9  H    0.000005
    10  H   -0.000000
    11  H    0.000000
    12  H   -0.000000
    13  H   -0.000036
    14  H   -0.000001
    15  C   -0.000025
    16  C   -0.000001
    17  C   -0.000000
    18  C   -0.000008
    19  H    0.000006
    20  H    0.000001
    21  H   -0.000001
    22  H    0.000000
    23  H    0.000000
    24  H    0.000000
    25  H    0.000000
    26  H    0.000002
    27  H   -0.000008
    28  C   -0.005242
    29  H    0.000228
    30  H    0.004891
    31  C   -0.023006
    32  C   -0.007426
    33  C    0.009856
    34  C    0.369392
    35  H    0.006104
    36  H    0.000082
    37  H   -0.000911
    38  H    0.000128
    39  H    0.000058
[...]
 0032646,0.00050489,0.01104571,-0.00570900,0.00862750,0.00060754,-0.000
 23080,0.00061986,-0.11534825,0.06037474,-0.14896877,0.00069336,-0.0004
 2204,0.00081966,0.00012664,0.00021273,0.00018827,-0.00011534,-0.000025
 97,-0.00005539,-0.00007209,-0.00011617,-0.00014039,-0.00514069,0.00376
 365,-0.00591954,0.12301260,-0.06246741,0.15853446,-0.00141896,0.000579
 41,-0.00013999,0.00004138,0.00007821,-0.00011037,0.00006728,0.00000307
 ,-0.00006013,-0.00001443,-0.00002032,0.00009153,0.00011417,0.00017108,
 0.00014909,-0.00000449,-0.00000595,-0.00001052,0.00000622,-0.00003233,
 0.00001804,0.00000658,0.00001350,0.00002007,-0.00000462,0.00000922,-0.
 00001115,0.00004120,0.00003521,0.00001596,0.00002589,-0.00001432,-0.00
 000822,0.00013911,-0.00008951,0.00017201,-0.00022007,-0.00037771,0.000
 01609,0.00015083,0.00001478,-0.00021996,0.00054058,0.00038274,0.000029
 69,-0.00001826,-0.00031394,-0.00006890,0.00006613,0.00001366,-0.000088
 59,0.00006116,-0.00003249,0.00009501,-0.00000358,0.00000858,0.00000257
 ,0.00000198,0.00001518,0.00001274,0.00013102,-0.00005466,0.00000201,-0
 .00001081,0.00002055,0.00000241,-0.00000149,-0.00005084,0.00001183,-0.
 00000080,0.00000790,0.00001144,-0.00000454,-0.00004371,-0.00003535,-0.
 00001333,0.00001796,0.00000441,0.00000462,0.00000466,-0.00001482,0.000
 63023,-0.00113855,0.00055744,0.00006106,0.00002139,-0.00003533,0.00017
 339,-0.00003837,-0.00002664,-0.00881187,-0.00890597,0.01306237,0.00037
 441,-0.00058640,-0.00075586,-0.10233219,-0.05151557,0.09510078,-0.0018
 0643,0.00361840,0.00127407,-0.00009570,0.00009171,-0.00018095,0.000542
 03,0.00049708,0.00018356,0.00000759,0.00010209,-0.00004236,-0.00776142
 ,-0.00603490,0.01340123,0.01139764,0.00934272,-0.01710868,0.10780005,0
 .00130214,-0.00057590,0.00026135,-0.00031392,0.00014869,0.00015685,0.0
 0000711,-0.00006033,0.00001944,0.00000585,-0.00009404,-0.00012359,0.00
 013729,0.00017655,0.00007241,0.00000697,0.00001414,-0.00000547,-0.0000
 0338,-0.00001143,0.00000901,0.00000448,0.00000148,-0.00002998,0.000002
 34,0.00000258,0.00000947,-0.00005968,-0.00001778,0.00000301,0.00001470
 ,0.00000509,-0.00000080,0.00007164,-0.00010641,0.00009907,-0.00004977,
 0.00003674,0.00035692,0.00006229,0.00008981,-0.00013777,-0.00010686,-0
 .00009889,-0.00006274,0.00001315,0.00006872,0.00001622,-0.00002187,0.0
 0001104,0.00002127,-0.00001204,-0.00000250,-0.00001126,0.00000511,-0.0
 0000418,0.00000043,-0.00000231,-0.00000119,-0.00000798,-0.00002861,0.0
 0000905,-0.00000009,0.00000132,-0.00000108,0.00000410,-0.00000024,0.00
 001380,-0.00000539,-0.00000120,0.00000034,-0.00000569,-0.00000364,0.00
 001643,0.00000193,-0.00000221,0.00000090,0.00000371,0.00000244,-0.0000
 0420,-0.00000622,-0.00058843,0.00087279,0.00034871,-0.00004485,-0.0000
 9379,0.00003614,-0.00030960,0.00002352,-0.00005460,0.00884568,0.010272
 32,-0.01752195,0.00036275,0.00109539,-0.00033343,-0.05301480,-0.094249
 89,0.08867436,0.00234044,-0.00268773,-0.00183887,0.00002616,0.00018383
 ,0.00023524,-0.00000538,-0.00047603,0.00005450,-0.00003575,-0.00005493
 ,0.00003528,-0.00893478,-0.00893029,0.01819682,-0.00512555,-0.00480470
 ,0.00679693,0.05451939,0.09871158,-0.00000824,0.00074040,0.00027278,0.
 00004242,-0.00006843,0.00010216,0.00000785,0.00001055,0.00000232,-0.00
 000512,-0.00001921,-0.00000312,-0.00017413,-0.00008814,-0.00014281,-0.
 00000115,-0.00000956,0.00001949,0.00000495,-0.00000508,0.00000637,-0.0
 0000364,-0.00000047,0.00001072,-0.00000408,-0.00001214,0.00000073,-0.0
 0000671,-0.00000961,0.00000200,0.00001323,0.00000254,-0.00000168,-0.00
 001906,0.00002753,-0.00001498,-0.00013646,-0.00003249,-0.00012464,-0.0
 0005379,-0.00007393,-0.00017249,-0.00034910,-0.00011369,0.00003555,-0.
 00002375,0.00014040,0.00002808,0.00000017,-0.00003586,0.00001747,0.000
 00856,-0.00001148,-0.00003500,-0.00000142,0.00000818,-0.00000598,-0.00
 000433,-0.00000388,-0.00000231,-0.00005390,0.00002326,-0.00000820,0.00
 000083,-0.00001021,-0.00000232,-0.00000265,0.00000157,0.00000293,0.000
 00126,0.00000188,-0.00000345,-0.00000513,0.00000498,0.00000820,-0.0000
 0399,-0.00000844,0.00000027,-0.00000609,0.00000786,0.00001096,-0.00035
 000,0.00042768,-0.00003925,0.00000960,-0.00012026,0.00004392,0.0000150
 4,-0.00011534,-0.00008606,0.00563065,0.00663668,-0.01139696,0.00019335
 ,0.00085643,0.00001335,0.09610100,0.08765339,-0.20810712,0.00160376,-0
 .00340369,-0.00068506,-0.00005725,-0.00008562,0.00023146,-0.00015195,-
 0.00048833,0.00022449,0.00001266,0.00000797,0.00000721,-0.00561712,-0.
 00497507,0.00940589,0.00915325,0.00684348,-0.01316728,-0.10643252,-0.0
 9428399,0.22366349,0.00043716,-0.00017610,0.00032016,-0.00000382,-0.00
 012804,0.00013368,0.00002645,0.00004301,0.00002702,-0.00002222,-0.0000
 1969,0.00000330,0.00000058,-0.00000758,-0.00000731,-0.00000354,-0.0000
 0061,0.00000240,-0.00000016,-0.00000002,-0.00000238,-0.00000341,-0.000
 00346,0.00002483,0.00001177,0.00000944,-0.00000289,0.00000265,0.000004
 85,-0.00000379,0.00000158,0.00000117,-0.00000209,-0.00000343,0.0000055
 7,0.00000149,-0.00000050,0.00001024,0.00000828,-0.00000313,0.00000339,
 -0.00000036,0.00000418,-0.00004246,0.00014178,-0.00001865,-0.00001069,
 0.00000765,0.00001727,-0.00002069,-0.00001367,-0.00000567,0.00001274,0
 .00000748,0.00000917,0.00000325,-0.00000201,-0.00000012,0.00000143,-0.
 00000176,0.00000568,-0.00000082,-0.00000431,-0.00000576,-0.00000245,0.
 00000044,-0.00000822,-0.00001386,0.00000389,0.00000184,0.00000058,-0.0
 0000122,-0.00000033,0.00000016,-0.00000635,-0.00000116,-0.00000752,-0.
 00000322,0.00000345,-0.00001362,-0.00000937,-0.00026970,-0.00085968,0.
 00146126,0.00004763,0.00007692,0.00026690,0.00006165,-0.00028314,0.000
 04421,0.00879363,-0.00603564,0.00965923,0.00071554,-0.00024148,0.00059
 370,0.00072424,-0.00043877,0.00054362,-0.16598903,0.07043117,-0.112479
 27,-0.00006678,-0.00003428,-0.00006425,0.00023956,0.00020587,0.0000096
 4,-0.00010494,-0.00012533,0.00017391,-0.00007020,0.00007045,-0.0000257
 3,-0.00016106,0.00004975,0.00011743,0.00023379,-0.00011229,-0.00017988
 ,0.17708283,0.00062863,0.00049677,0.00004330,-0.00016806,-0.00032324,0
 .00020143,0.00008095,0.00016648,0.00008852,-0.00004086,0.00000659,0.00
 001865,0.00004584,-0.00003196,0.00000476,-0.00000174,-0.00000017,-0.00
 001392,0.00000173,-0.00001051,-0.00000597,0.00001462,-0.00001927,0.000
 07767,-0.00001080,-0.00001364,-0.00000646,0.00002457,0.00001266,0.0000
 2121,0.00000322,-0.00000745,-0.00000207,-0.00000250,0.00002464,0.00002
 141,-0.00000410,-0.00000789,-0.00000861,-0.00000843,-0.00000160,0.0000
 0054,-0.00007010,0.00004053,0.00012902,-0.00002573,-0.00002212,-0.0000
 1523,0.00006339,-0.00006590,-0.00005786,0.00004937,-0.00000982,0.00000
 289,-0.00001858,0.00000940,0.00000269,-0.00000078,0.00000170,0.0000084
 9,0.00002365,-0.00002373,-0.00000101,-0.00000261,0.00000881,-0.0000015
 5,-0.00000533,-0.00004538,0.00001868,-0.00000062,0.00001026,0.00000266
 ,-0.00000831,-0.00003226,-0.00000465,-0.00001334,0.00000104,0.00000546
 ,-0.00000724,0.00002912,0.00001019,-0.00188286,-0.00125187,0.00234351,
 0.00019624,0.00023101,0.00007612,-0.00044064,0.00020375,-0.00008724,0.
 00994732,-0.00681016,0.00804546,0.00100510,-0.00002742,0.00038918,0.00
 027104,0.00033068,-0.00095397,0.06924437,-0.08577290,0.06417790,0.0000
 0465,0.00000058,0.00000892,-0.00005393,0.00020185,-0.00020864,-0.00063
 524,-0.00030659,0.00005565,-0.00008840,0.00001043,0.00000608,-0.000087
 03,0.00033351,-0.00023092,-0.00013848,-0.00010171,-0.00012006,-0.07494
 546,0.08975385,-0.00107362,-0.00003297,0.00039253,0.00017203,0.0003651
 9,-0.00016930,-0.00009741,-0.00021082,-0.00009656,0.00004532,-0.000034
 28,-0.00003225,-0.00007083,0.00002365,-0.00001290,0.00000315,0.0000036
 6,0.00001928,-0.00000028,0.00001464,0.00001037,-0.00001976,0.00001700,
 -0.00010269,0.00003036,0.00002927,0.00000965,-0.00004153,-0.00001669,-
 0.00003858,-0.00000170,0.00001518,-0.00000040,0.00000519,-0.00003699,-
 0.00003864,-0.00000435,0.00001963,0.00001930,0.00001524,0.00000674,-0.
 00000270,0.00023926,0.00002009,-0.00046698,0.00006690,0.00003495,0.000
 01857,-0.00015765,0.00019385,0.00013508,-0.00006785,-0.00000890,-0.000
 04432,0.00001807,-0.00002041,-0.00000289,-0.00000230,-0.00000431,-0.00
 001221,-0.00004223,0.00004078,0.00000503,0.00000359,-0.00001773,0.0000
 0603,0.00001744,0.00010116,-0.00005434,-0.00000065,-0.00001854,-0.0000
 0530,0.00000996,0.00004982,0.00001548,0.00002020,-0.00000750,-0.000000
 12,0.00001326,-0.00002121,-0.00001714,0.00319579,0.00246783,-0.0037744
 3,0.00037256,-0.00010107,0.00027107,-0.00000389,0.00004672,0.00024763,
 -0.01646370,0.00835715,-0.01514806,-0.00083063,-0.00073097,0.00057476,
 -0.00134491,0.00030435,0.00029674,-0.11062001,0.06420959,-0.14831097,0
 .00008518,-0.00000455,0.00000593,0.00017429,-0.00028682,0.00007499,0.0
 0046609,0.00017336,0.00037584,0.00002090,-0.00000063,0.00000785,0.0008
 1640,-0.00042882,-0.00013664,0.00011787,-0.00004364,0.00037679,0.11937
 903,-0.07295867,0.16097445,-0.00009340,0.00017383,0.00014714,0.0000277
 2,-0.00006315,0.00000213,0.00001169,0.00003139,0.00000886,-0.00000313,
 0.00001303,0.00003154,0.00000920,-0.00001719,0.00001462,-0.00000259,-0
 .00000155,-0.00000312,0.00000044,-0.00000052,-0.00000220,0.00000093,-0
 .00000247,0.00001567,0.00000236,-0.00000713,0.00000262,0.00001198,0.00
 000452,0.00000772,-0.00000099,-0.00000211,-0.00000102,-0.00000005,0.00
 000890,0.00000074,-0.00000217,0.00000300,0.00000138,-0.00000143,0.0000
 0018,-0.00000411,0.00005050,0.00001365,-0.00005099,-0.00000129,-0.0000
 0723,0.00000505,-0.00000364,0.00002162,0.00000536,-0.00001949,-0.00003
 627,-0.00000400,-0.00000631,0.00000064,0.00000088,0.00000381,0.0000000
 9,0.00000407,0.00000375,-0.00000525,-0.00000069,-0.00000066,0.00000109
 ,-0.00000040,0.00000046,0.00000009,-0.00000485,-0.00000021,-0.00000089
 ,0.00000394,0.00001956,-0.00001285,0.00001161,0.00003009,0.00003509,-0
 .00001458,-0.00002463,0.00000649,0.00001378,0.00034999,0.00099371,-0.0
 0084000,0.00051196,0.00024159,-0.00006111,0.00000260,0.00000156,0.0001
 2015,-0.00971449,-0.00988994,-0.00599341,-0.00102433,-0.00095503,0.003
 60659,0.00004612,-0.00065400,-0.00094875,-0.13601886,-0.11306382,-0.05
 277516,0.00018110,-0.00010254,-0.00018677,-0.00034492,-0.00110687,-0.0
 0036958,0.00032938,0.00026930,0.00013704,-0.00017804,0.00038474,0.0005
 9510,0.00003112,-0.00001262,0.00000871,0.00023471,0.00019098,0.0000520
 2,-0.01105209,-0.01527759,-0.00561476,0.14504826,0.00006302,0.00022088
 ,-0.00004997,0.00002148,-0.00004268,0.00001090,0.00001345,0.00001768,0
 .00000193,-0.00000324,-0.00000445,0.00003428,0.00000486,-0.00001516,0.
 00001137,-0.00000149,0.00000013,-0.00000346,-0.00000081,-0.00000023,-0
 .00000149,-0.00000159,-0.00000191,0.00000902,0.00000731,0.00000398,0.0
 0000156,0.00000869,0.00000553,-0.00000605,-0.00000037,0.00000147,-0.00
 000482,-0.00000009,0.00000441,-0.00000050,-0.00000778,0.00000518,0.000
 00141,0.00000400,0.00000289,-0.00000836,0.00005939,0.00001621,-0.00004
 448,-0.00000412,-0.00000549,0.00001306,-0.00000360,0.00003401,0.000012
 75,-0.00000686,-0.00001442,-0.00002065,-0.00000525,0.00000185,-0.00000
 503,0.00000618,-0.00000069,0.00000461,0.00000262,-0.00000037,-0.000002
 01,-0.00000241,-0.00000087,0.00000012,-0.00000200,0.00000684,-0.000006
 34,-0.00000087,-0.00000362,0.00000675,0.00001776,-0.00001396,0.0000212
 1,0.00002597,0.00003961,-0.00001763,-0.00004072,0.00002367,0.00000869,
 -0.00045287,0.00011499,-0.00105403,0.00056007,0.00017964,0.00076495,-0
 .00003598,-0.00000150,-0.00004144,-0.00732254,-0.01118642,-0.00575721,
 -0.00109209,-0.00070879,0.00377307,0.00093152,0.00048318,-0.00065018,-
 0.11326673,-0.18772780,-0.06577444,0.00020634,0.00037432,0.00009720,-0
 .00098490,-0.00057565,-0.00039206,-0.00004649,0.00019627,-0.00020406,-
 0.00005322,0.00057992,0.00019648,0.00003186,0.00001102,0.00004062,0.00
 017766,0.00008371,0.00020778,0.00768237,0.01030269,0.00430345,0.125597
 94,0.20091602,0.00010829,-0.00014313,0.00018175,-0.00003803,-0.0000434
 5,0.00001908,0.00001195,0.00002485,0.00001243,-0.00000593,-0.00000088,
 0.00000389,0.00001033,0.00000032,0.00000131,0.00000066,-0.00000013,-0.
 00000238,0.00000022,-0.00000304,-0.00000051,0.00000350,-0.00000155,0.0
 0001321,-0.00000378,-0.00000815,-0.00000181,0.00000275,0.00000275,0.00
 000958,0.00000123,-0.00000405,0.00000191,0.00000190,0.00000179,0.00001
 336,-0.00000347,-0.00000186,0.00000586,-0.00000179,-0.00000223,0.00000
 228,-0.00004081,-0.00000278,0.00008620,-0.00000795,-0.00000918,-0.0000
 0864,0.00002495,-0.00003480,-0.00002201,0.00002398,0.00001496,0.000005
 56,-0.00000127,0.00000147,0.00000077,-0.00000274,0.00000088,0.00000102
 ,0.00000715,-0.00000596,-0.00000122,0.00000001,0.00000264,-0.00000070,
 -0.00000162,-0.00001824,0.00000884,0.00000006,0.00000387,-0.00000112,-
 0.00001331,-0.00000343,-0.00000798,-0.00001240,-0.00002729,0.00000750,
 0.00000644,-0.00000375,-0.00000147,0.00107520,0.00078730,0.00081727,-0
 .00050902,0.00002903,-0.00078660,-0.00009543,-0.00006462,-0.00004239,0
 .01363837,0.01748006,0.00789612,0.00197384,0.00199649,-0.00333165,0.00
 012341,0.00086733,0.00101110,-0.05413215,-0.06757923,-0.07707491,-0.00
 013147,0.00009818,-0.00005556,0.00093435,0.00108993,0.00048913,0.00016
 822,-0.00012208,0.00001621,0.00005130,-0.00023704,-0.00027230,0.000002
 24,-0.00008781,-0.00006844,-0.00028398,0.00006449,0.00014797,-0.009543
 59,-0.01442202,-0.00628453,0.05613165,0.07005415,0.08256703,-0.0000965
 3,-0.00018462,-0.00007119,0.00004283,0.00002352,-0.00002626,0.00000200
 ,-0.00000650,-0.00001174,0.00000269,0.00000754,0.00001486,0.00001220,0
 .00002209,-0.00000310,-0.00000171,-0.00000074,-0.00000140,0.00000107,-
 0.00000365,0.00000157,-0.00000086,0.00000347,0.00000174,-0.00000815,-0
 .00000532,0.00000202,0.00000506,0.00000188,0.00000599,0.00000261,-0.00
 000275,0.00000052,0.00000805,-0.00000786,0.00001721,-0.00002527,-0.000
 02210,-0.00000190,0.00000514,0.00000255,-0.00001391,0.00002840,0.00002
 444,0.00005485,-0.00000552,-0.00002811,-0.00000960,0.00001492,-0.00001
 783,-0.00002264,-0.00000815,-0.00000915,0.00002039,-0.00000275,0.00000
 429,0.00000369,-0.00000239,0.00000024,0.00000153,0.00001320,-0.0000090
 5,0.00000011,-0.00000107,0.00000374,0.00000011,-0.00000159,-0.00001320
 ,0.00000622,0.00000056,0.00000279,-0.00000059,0.00000092,-0.00000292,-
 0.00001021,-0.00000292,0.00000132,0.00000284,0.00001146,-0.00000719,0.
 00000277,0.00032007,0.00015383,-0.00130136,-0.00000693,-0.00009301,0.0
 0001148,0.00061544,-0.00012206,-0.00015294,-0.00927786,0.00991638,0.00
 607475,0.00013756,0.00122628,0.00015193,-0.00103306,-0.00273551,0.0025
 6624,-0.12940060,0.09692956,0.07454579,-0.00017301,-0.00080983,-0.0001
 5178,0.00023411,-0.00012078,-0.00014911,0.00002154,0.00000057,0.000017
 67,0.00019187,0.00021067,-0.00000629,0.00031750,-0.00024049,-0.0001845
 2,-0.00033005,0.00085492,0.00080088,-0.01062673,0.01233408,0.01116996,
 0.01158500,-0.01208647,-0.00947325,0.13743095,-0.00011545,0.00009074,-
 0.00008820,0.00000501,0.00006014,-0.00001958,-0.00001645,-0.00002942,-
 0.00001123,0.00000499,-0.00000548,-0.00000819,-0.00001595,-0.00000243,
 0.00001118,0.00000100,0.00000076,0.00000254,-0.00000037,0.00000329,0.0
 0000098,-0.00000208,0.00000176,-0.00001559,0.00000728,0.00000064,0.000
 00263,-0.00000732,-0.00000399,-0.00000429,-0.00000135,0.00000369,-0.00
 000134,0.00000319,-0.00000248,-0.00000770,0.00000171,0.00000573,0.0000
 0017,0.00000813,0.00000281,-0.00000286,0.00002333,-0.00000555,-0.00004
 921,0.00001019,0.00001007,-0.00000549,-0.00002005,0.00001891,0.0000178
 7,-0.00001021,0.00001961,-0.00001134,0.00000095,-0.00000429,-0.0000013
 9,-0.00000121,-0.00000137,-0.00000212,-0.00000707,0.00000695,0.0000025
 0,0.00000011,-0.00000287,0.00000104,0.00000199,0.00001348,-0.00000597,
 0.00000027,-0.00000253,-0.00000116,-0.00000123,0.00001231,-0.00000167,
 -0.00000258,-0.00000900,0.00000200,0.00001052,0.00000324,-0.00000951,-
 0.00067889,0.00054746,0.00049079,0.00009903,-0.00006631,0.00000943,-0.
 00001896,0.00003346,0.00000702,-0.00836059,0.00857430,0.00722842,-0.00
 053664,0.00099185,0.00062183,-0.00120100,-0.00033695,0.00180020,0.0983
 0271,-0.16026156,-0.08788124,-0.00012116,-0.00030201,0.00006320,0.0001
 7201,0.00025234,-0.00002230,-0.00001632,-0.00007554,-0.00005195,0.0000
 2072,0.00011875,0.00023675,-0.00012801,-0.00007571,0.00002498,-0.00035
 213,0.00053852,0.00049241,0.00491131,-0.00729077,-0.00581253,0.0132255
 8,-0.01332211,-0.00969378,-0.10519501,0.17048957,-0.00003099,0.0000117
 8,0.00030884,-0.00005740,-0.00004348,0.00003784,0.00000273,0.00002712,
 0.00002574,-0.00000121,0.00000377,-0.00000534,-0.00000135,-0.00003502,
 0.00001584,0.00000302,0.00000165,-0.00000276,-0.00000117,0.00000408,-0
 .00000478,0.00000686,-0.00000259,0.00001055,0.00000862,-0.00000027,0.0
 0000074,-0.00000004,0.00000029,0.00000130,-0.00000482,0.00000200,-0.00
 000236,-0.00001039,0.00001707,-0.00001777,0.00003354,0.00003204,0.0000
 1850,-0.00001013,-0.00000264,0.00001493,-0.00003886,-0.00000048,-0.000
 02979,0.00000523,0.00002620,-0.00000246,-0.00000130,0.00000146,0.00000
 626,0.00001653,-0.00000342,-0.00003017,-0.00000971,-0.00000036,0.00000
 215,0.00000041,-0.00000408,0.00000579,-0.00000744,-0.00000126,0.000000
 63,-0.00000038,-0.00000132,0.00000045,0.00000171,0.00000182,-0.0000019
 5,-0.00000070,-0.00000192,0.00000206,-0.00000446,-0.00000929,0.0000119
 0,-0.00000628,-0.00000637,0.00000443,-0.00000485,0.00001471,0.00001025
 ,0.00080375,-0.00117642,0.00044148,0.00003884,0.00002545,0.00006252,-0
 .00075288,0.00077606,-0.00034039,0.01254342,-0.01661634,-0.01237700,-0
 .00083631,-0.00096044,0.00055108,0.00188654,0.00358623,-0.00370230,0.0
 7408896,-0.08608751,-0.11149354,0.00002467,0.00054046,0.00043931,-0.00
 029895,0.00012200,-0.00001525,-0.00001929,0.00009270,0.00001397,-0.000
 26018,0.00023122,0.00019299,0.00012620,-0.00006075,0.00027794,0.001282
 06,-0.00100420,-0.00063591,-0.01057785,0.01333846,0.01091458,0.0059471
 7,-0.00553115,-0.00535515,-0.08388334,0.09269270,0.12064488\\-0.000000
 06,-0.00002199,0.00000938,-0.00002483,0.00001555,0.00000945,-0.0000044
 9,-0.00000949,0.00000384,-0.00000296,-0.00000532,0.00000349,-0.0000069
 0,0.00000121,-0.00000556,-0.00001267,-0.00000997,-0.00000335,-0.000010
 08,-0.00000346,-0.00000097,-0.00001933,-0.00000429,0.00000399,-0.00000
 848,0.00000776,0.00001319,-0.00001529,0.00000181,0.00001449,-0.0000104
 9,0.00000645,0.00000678,-0.00002116,-0.00000593,0.00000653,-0.00000936
 ,-0.00000429,0.00001019,-0.00002254,-0.00000855,-0.00000661,-0.0000092
 1,0.00000923,-0.00002654,0.00000180,0.00000055,0.00001052,0.00000360,-
 0.00000534,-0.00000888,0.00001507,-0.00000315,-0.00000506,0.00000668,0
 .00001284,0.00000551,0.00000340,0.00001077,0.00001432,0.00001040,0.000
 00862,-0.00000049,0.00000545,-0.00000817,-0.00001396,0.00000726,-0.000
 00289,-0.00000840,0.00000379,0.00000255,0.00000599,0.00001611,0.000002
 44,-0.00000593,0.00001307,-0.00000146,-0.00001021,0.00001365,0.0000034
 9,-0.00000224,0.00001177,-0.00000558,0.00000074,-0.00000133,0.00000579
 ,0.00000696,0.00000964,0.00000307,0.00000434,-0.00000121,0.00000220,0.
 00000468,0.00001039,-0.00000140,-0.00000850,-0.00000316,-0.00000050,-0
 .00000375,0.00000702,0.00000750,0.00000239,0.00001604,0.00000169,-0.00
 000719,0.00000926,-0.00000388,-0.00001181,0.00001139,-0.00000217,-0.00
 000949,-0.00000717,-0.00000242,0.00000053,-0.00000077,-0.00000414,-0.0
 0000528,-0.00000523,-0.00000749,-0.00000486,0.00000822,0.00000424,0.00
 000072,0.00000175,0.00000661,0.00000744,0.00001092,0.00000752,0.000003
 63\\\@


 "ANNA, YOU MUSN'T SPEAK OF OXIDIZED MURIATIC ACID
 ANYMORE, FROM NOW ON YOU MUST SAY CHLORINE."
   -- JENS JACOB BERZELIUS, IN 1820, TO HIS COOK, WHO HAD
 COMPLAINED OF THE SMELL OF THE FLASK SHE WAS CLEANING.
 Job cpu time:       0 days  1 hours 32 minutes 59.5 seconds.
 File lengths (MBytes):  RWF=    579 Int=      0 D2E=      0 Chk=     25 Scr=      1
 Normal termination of Gaussian 09 at Tue May 14 18:39:18 2019.
40042.01user 45.88system 11:09:31elapsed 99%CPU (0avgtext+0avgdata 433108maxresident)k
89202331inputs+27237399outputs (37major+1345654minor)pagefaults 0swaps
