 Entering Gaussian System, Link 0=g09
 Initial command:
 /opt/gaussian/09.D.01/g09/l1.exe "/scratch/rmarti96/23425816/Gau-30397.inp" -scrdir="/scratch/rmarti96/23425816/"
 Entering Link 1 = /opt/gaussian/09.D.01/g09/l1.exe PID=     31044.
  
 Copyright (c) 1988,1990,1992,1993,1995,1998,2003,2009,2013,
            Gaussian, Inc.  All Rights Reserved.
  
 This is part of the Gaussian(R) 09 program.  It is based on
 the Gaussian(R) 03 system (copyright 2003, Gaussian, Inc.),
 the Gaussian(R) 98 system (copyright 1998, Gaussian, Inc.),
 the Gaussian(R) 94 system (copyright 1995, Gaussian, Inc.),
 the Gaussian 92(TM) system (copyright 1992, Gaussian, Inc.),
 the Gaussian 90(TM) system (copyright 1990, Gaussian, Inc.),
 the Gaussian 88(TM) system (copyright 1988, Gaussian, Inc.),
 the Gaussian 86(TM) system (copyright 1986, Carnegie Mellon
 University), and the Gaussian 82(TM) system (copyright 1983,
 Carnegie Mellon University). Gaussian is a federally registered
 trademark of Gaussian, Inc.
  
 This software contains proprietary and confidential information,
 including trade secrets, belonging to Gaussian, Inc.
  
 This software is provided under written license and may be
 used, copied, transmitted, or stored only in accord with that
 written license.
  
 The following legend is applicable only to US Government
 contracts under FAR:
  
                    RESTRICTED RIGHTS LEGEND
  
 Use, reproduction and disclosure by the US Government is
 subject to restrictions as set forth in subparagraphs (a)
 and (c) of the Commercial Computer Software - Restricted
 Rights clause in FAR 52.227-19.
  
 Gaussian, Inc.
 340 Quinnipiac St., Bldg. 40, Wallingford CT 06492
  
  
 ---------------------------------------------------------------
 Warning -- This program may not be used in any manner that
 competes with the business of Gaussian, Inc. or will provide
 assistance to any competitor of Gaussian, Inc.  The licensee
 of this program is prohibited from giving any competitor of
 Gaussian, Inc. access to this program.  By using this program,
 the user acknowledges that Gaussian, Inc. is engaged in the
 business of creating and licensing software in the field of
 computational chemistry and represents and warrants to the
 licensee that it is not a competitor of Gaussian, Inc. and that
 it will not use this program in any manner prohibited above.
 ---------------------------------------------------------------
  

 Cite this work as:
 Gaussian 09, Revision D.01,
 M. J. Frisch, G. W. Trucks, H. B. Schlegel, G. E. Scuseria, 
 M. A. Robb, J. R. Cheeseman, G. Scalmani, V. Barone, B. Mennucci, 
 G. A. Petersson, H. Nakatsuji, M. Caricato, X. Li, H. P. Hratchian, 
 A. F. Izmaylov, J. Bloino, G. Zheng, J. L. Sonnenberg, M. Hada, 
 M. Ehara, K. Toyota, R. Fukuda, J. Hasegawa, M. Ishida, T. Nakajima, 
 Y. Honda, O. Kitao, H. Nakai, T. Vreven, J. A. Montgomery, Jr., 
 J. E. Peralta, F. Ogliaro, M. Bearpark, J. J. Heyd, E. Brothers, 
 K. N. Kudin, V. N. Staroverov, T. Keith, R. Kobayashi, J. Normand, 
 K. Raghavachari, A. Rendell, J. C. Burant, S. S. Iyengar, J. Tomasi, 
 M. Cossi, N. Rega, J. M. Millam, M. Klene, J. E. Knox, J. B. Cross, 
 V. Bakken, C. Adamo, J. Jaramillo, R. Gomperts, R. E. Stratmann, 
 O. Yazyev, A. J. Austin, R. Cammi, C. Pomelli, J. W. Ochterski, 
 R. L. Martin, K. Morokuma, V. G. Zakrzewski, G. A. Voth, 
 P. Salvador, J. J. Dannenberg, S. Dapprich, A. D. Daniels, 
 O. Farkas, J. B. Foresman, J. V. Ortiz, J. Cioslowski, 
 and D. J. Fox, Gaussian, Inc., Wallingford CT, 2013.
 
 ******************************************
 Gaussian 09:  ES64L-G09RevD.01 24-Apr-2013
                14-May-2019 
 ******************************************
 %chk=Tri-alkyl-L5.chk
 ----------------------------------------------------------------------
 # opt=(calcfc,noeigen) freq=noraman b3lyp scrf=(cpcm,solvent=dichloroe
 thane) nosymm def2svp empiricaldispersion=gd3
 ----------------------------------------------------------------------
 1/10=4,11=1,14=-1,18=20,19=15,26=3,38=1/1,3;
 2/9=110,12=2,15=1,17=6,18=5,40=1/2;
 3/5=43,7=101,11=2,16=1,25=1,30=1,70=2101,71=2,72=10,74=-5,124=31,140=1/1,2,3;
 4//1;
 5/5=2,38=5,53=10/2;
 8/6=4,10=90,11=11/1;
 11/6=1,8=1,9=11,15=111,16=1,31=1/1,2,10;
 10/6=1,13=1,31=1/2;
 6/7=2,8=2,9=2,10=2,28=1/1;
 7/10=1,18=20,25=1,30=1/1,2,3,16;
 1/10=4,11=1,14=-1,18=20,19=15,26=3/3(2);
 2/9=110,15=1/2;
 99//99;
 2/9=110,15=1/2;
 3/5=43,7=101,11=2,16=1,25=1,30=1,70=2105,71=1,72=10,74=-5,124=31/1,2,3;
 4/5=5,16=3,69=1/1;
 5/5=2,38=5,53=10/2;
 7/30=1/1,2,3,16;
 1/11=1,14=-1,18=20,19=15,26=3/3(-5);
 2/9=110,15=1/2;
 6/7=2,8=2,9=2,10=2,19=2,28=1/1;
 99/9=1/99;
 ------------
 Tri-alkyl-L5
 ------------
 Symbolic Z-matrix:
 Charge =  0 Multiplicity = 1
 P                     0.16129  -1.49642   0. 
 C                     0.76797  -0.63847   1.48602 
 C                     0.25114  -1.37412   2.70426 
 C                     2.28168  -0.65106   1.45799 
 C                     0.24648   0.78271   1.46083 
 H                    -0.86526  -1.38409   2.70751 
 H                     0.61678  -2.42899   2.70531 
 H                     0.60276  -0.87736   3.64047 
 H                     2.65783  -0.13011   0.54498 
 H                     2.69454  -0.13196   2.35634 
 H                     2.66159  -1.70086   1.45092 
 H                     0.59735   1.34483   2.35965 
 H                     0.60928   1.31362   0.54817 
 H                    -0.86996   0.78689   1.45519 
 C                     0.76525  -0.63655  -1.48602 
 C                     0.34347  -1.40299  -2.72313 
 C                     0.22677   0.77983  -1.50749 
 H                     1.88509  -0.60888  -1.42807 
 C                     0.75445  -0.67793  -3.98841 
 H                    -0.77014  -1.53787  -2.71604 
 H                     0.80646  -2.42379  -2.70831 
 C                     0.63846   1.50513  -2.77242 
 H                    -0.89265   0.75416  -1.43971 
 H                     0.60584   1.33954  -0.61335 
 C                     0.21822   0.73881  -4.00999 
 H                     0.37392  -1.23717  -4.88224 
 H                     1.87385  -0.65389  -4.05731 
 H                     0.17511   2.52574  -2.7875 
 H                     1.75206   1.64051  -2.7784 
 H                     0.59254   1.26805  -4.92454 
 H                    -0.90162   0.7127   -4.07018 
 C                     0.77065  -3.21137  -0.00166 
 C                     0.87477  -3.7149    1.4236 
 C                    -0.15939  -4.08016  -0.82432 
 H                     1.78936  -3.20699  -0.47111 
 C                     1.29995  -5.16851   1.46572 
 H                    -0.11893  -3.60252   1.93183 
 H                     1.61473  -3.09091   1.98905 
 C                     0.26629  -5.53367  -0.78285 
 H                    -1.20478  -3.98617  -0.4285 
 H                    -0.16753  -3.72138  -1.88623 
 C                     0.37191  -6.03767   0.64202 
 H                     1.30651  -5.52731   2.52766 
 H                     2.34606  -5.2624    1.07174 
 H                    -0.47388  -6.15773  -1.34787 
 H                     1.2596   -5.64547  -1.29207 
 H                     0.74935  -7.09319   0.63999 
 H                    -0.64681  -6.04478   1.11161 
 

 GradGradGradGradGradGradGradGradGradGradGradGradGradGradGradGradGradGrad
 Berny optimization.
 Initialization pass.
                           ----------------------------
                           !    Initial Parameters    !
                           ! (Angstroms and Degrees)  !
 --------------------------                            --------------------------
 ! Name  Definition              Value          Derivative Info.                !
 --------------------------------------------------------------------------------
 ! R1    R(1,2)                  1.82           calculate D2E/DX2 analytically  !
 ! R2    R(1,15)                 1.82           calculate D2E/DX2 analytically  !
 ! R3    R(1,32)                 1.82           calculate D2E/DX2 analytically  !
 ! R4    R(2,3)                  1.5141         calculate D2E/DX2 analytically  !
 ! R5    R(2,4)                  1.514          calculate D2E/DX2 analytically  !
 ! R6    R(2,5)                  1.514          calculate D2E/DX2 analytically  !
 ! R7    R(3,6)                  1.1164         calculate D2E/DX2 analytically  !
 ! R8    R(3,7)                  1.1164         calculate D2E/DX2 analytically  !
 ! R9    R(3,8)                  1.1166         calculate D2E/DX2 analytically  !
 ! R10   R(4,9)                  1.1165         calculate D2E/DX2 analytically  !
 ! R11   R(4,10)                 1.1167         calculate D2E/DX2 analytically  !
 ! R12   R(4,11)                 1.1165         calculate D2E/DX2 analytically  !
 ! R13   R(5,12)                 1.1167         calculate D2E/DX2 analytically  !
 ! R14   R(5,13)                 1.1164         calculate D2E/DX2 analytically  !
 ! R15   R(5,14)                 1.1165         calculate D2E/DX2 analytically  !
 ! R16   R(15,16)                1.5152         calculate D2E/DX2 analytically  !
 ! R17   R(15,17)                1.5154         calculate D2E/DX2 analytically  !
 ! R18   R(15,18)                1.1217         calculate D2E/DX2 analytically  !
 ! R19   R(16,19)                1.5151         calculate D2E/DX2 analytically  !
 ! R20   R(16,20)                1.1218         calculate D2E/DX2 analytically  !
 ! R21   R(16,21)                1.121          calculate D2E/DX2 analytically  !
 ! R22   R(17,22)                1.5151         calculate D2E/DX2 analytically  !
 ! R23   R(17,23)                1.1218         calculate D2E/DX2 analytically  !
 ! R24   R(17,24)                1.1209         calculate D2E/DX2 analytically  !
 ! R25   R(19,25)                1.515          calculate D2E/DX2 analytically  !
 ! R26   R(19,26)                1.1209         calculate D2E/DX2 analytically  !
 ! R27   R(19,27)                1.1218         calculate D2E/DX2 analytically  !
 ! R28   R(22,25)                1.5151         calculate D2E/DX2 analytically  !
 ! R29   R(22,28)                1.121          calculate D2E/DX2 analytically  !
 ! R30   R(22,29)                1.1218         calculate D2E/DX2 analytically  !
 ! R31   R(25,30)                1.121          calculate D2E/DX2 analytically  !
 ! R32   R(25,31)                1.1218         calculate D2E/DX2 analytically  !
 ! R33   R(32,33)                1.5152         calculate D2E/DX2 analytically  !
 ! R34   R(32,34)                1.5154         calculate D2E/DX2 analytically  !
 ! R35   R(32,35)                1.1217         calculate D2E/DX2 analytically  !
 ! R36   R(33,36)                1.5151         calculate D2E/DX2 analytically  !
 ! R37   R(33,37)                1.1218         calculate D2E/DX2 analytically  !
 ! R38   R(33,38)                1.121          calculate D2E/DX2 analytically  !
 ! R39   R(34,39)                1.5151         calculate D2E/DX2 analytically  !
 ! R40   R(34,40)                1.1218         calculate D2E/DX2 analytically  !
 ! R41   R(34,41)                1.1209         calculate D2E/DX2 analytically  !
 ! R42   R(36,42)                1.515          calculate D2E/DX2 analytically  !
 ! R43   R(36,43)                1.1209         calculate D2E/DX2 analytically  !
 ! R44   R(36,44)                1.1218         calculate D2E/DX2 analytically  !
 ! R45   R(39,42)                1.5151         calculate D2E/DX2 analytically  !
 ! R46   R(39,45)                1.121          calculate D2E/DX2 analytically  !
 ! R47   R(39,46)                1.1218         calculate D2E/DX2 analytically  !
 ! R48   R(42,47)                1.121          calculate D2E/DX2 analytically  !
 ! R49   R(42,48)                1.1218         calculate D2E/DX2 analytically  !
 ! A1    A(2,1,15)             109.4713         calculate D2E/DX2 analytically  !
 ! A2    A(2,1,32)             109.4712         calculate D2E/DX2 analytically  !
 ! A3    A(15,1,32)            109.4712         calculate D2E/DX2 analytically  !
 ! A4    A(1,2,3)              108.3085         calculate D2E/DX2 analytically  !
 ! A5    A(1,2,4)              108.3146         calculate D2E/DX2 analytically  !
 ! A6    A(1,2,5)              108.3057         calculate D2E/DX2 analytically  !
 ! A7    A(3,2,4)              110.6182         calculate D2E/DX2 analytically  !
 ! A8    A(3,2,5)              110.6028         calculate D2E/DX2 analytically  !
 ! A9    A(4,2,5)              110.6013         calculate D2E/DX2 analytically  !
 ! A10   A(2,3,6)              110.3664         calculate D2E/DX2 analytically  !
 ! A11   A(2,3,7)              110.3674         calculate D2E/DX2 analytically  !
 ! A12   A(2,3,8)              110.5459         calculate D2E/DX2 analytically  !
 ! A13   A(6,3,7)              108.6055         calculate D2E/DX2 analytically  !
 ! A14   A(6,3,8)              108.446          calculate D2E/DX2 analytically  !
 ! A15   A(7,3,8)              108.4462         calculate D2E/DX2 analytically  !
 ! A16   A(2,4,9)              110.3714         calculate D2E/DX2 analytically  !
 ! A17   A(2,4,10)             110.5421         calculate D2E/DX2 analytically  !
 ! A18   A(2,4,11)             110.3742         calculate D2E/DX2 analytically  !
 ! A19   A(9,4,10)             108.4467         calculate D2E/DX2 analytically  !
 ! A20   A(9,4,11)             108.5976         calculate D2E/DX2 analytically  !
 ! A21   A(10,4,11)            108.4451         calculate D2E/DX2 analytically  !
 ! A22   A(2,5,12)             110.5421         calculate D2E/DX2 analytically  !
 ! A23   A(2,5,13)             110.3677         calculate D2E/DX2 analytically  !
 ! A24   A(2,5,14)             110.3667         calculate D2E/DX2 analytically  !
 ! A25   A(12,5,13)            108.4512         calculate D2E/DX2 analytically  !
 ! A26   A(12,5,14)            108.4449         calculate D2E/DX2 analytically  !
 ! A27   A(13,5,14)            108.6049         calculate D2E/DX2 analytically  !
 ! A28   A(1,15,16)            109.59           calculate D2E/DX2 analytically  !
 ! A29   A(1,15,17)            109.586          calculate D2E/DX2 analytically  !
 ! A30   A(1,15,18)            107.5042         calculate D2E/DX2 analytically  !
 ! A31   A(16,15,17)           111.2413         calculate D2E/DX2 analytically  !
 ! A32   A(16,15,18)           109.4252         calculate D2E/DX2 analytically  !
 ! A33   A(17,15,18)           109.4158         calculate D2E/DX2 analytically  !
 ! A34   A(15,16,19)           111.3625         calculate D2E/DX2 analytically  !
 ! A35   A(15,16,20)           109.3908         calculate D2E/DX2 analytically  !
 ! A36   A(15,16,21)           109.5638         calculate D2E/DX2 analytically  !
 ! A37   A(19,16,20)           109.3968         calculate D2E/DX2 analytically  !
 ! A38   A(19,16,21)           109.5595         calculate D2E/DX2 analytically  !
 ! A39   A(20,16,21)           107.4839         calculate D2E/DX2 analytically  !
 ! A40   A(15,17,22)           111.2657         calculate D2E/DX2 analytically  !
 ! A41   A(15,17,23)           109.4111         calculate D2E/DX2 analytically  !
 ! A42   A(15,17,24)           109.5868         calculate D2E/DX2 analytically  !
 ! A43   A(22,17,23)           109.4233         calculate D2E/DX2 analytically  !
 ! A44   A(22,17,24)           109.5746         calculate D2E/DX2 analytically  !
 ! A45   A(23,17,24)           107.5            calculate D2E/DX2 analytically  !
 ! A46   A(16,19,25)           111.3094         calculate D2E/DX2 analytically  !
 ! A47   A(16,19,26)           109.5772         calculate D2E/DX2 analytically  !
 ! A48   A(16,19,27)           109.4042         calculate D2E/DX2 analytically  !
 ! A49   A(25,19,26)           109.5749         calculate D2E/DX2 analytically  !
 ! A50   A(25,19,27)           109.4074         calculate D2E/DX2 analytically  !
 ! A51   A(26,19,27)           107.4863         calculate D2E/DX2 analytically  !
 ! A52   A(17,22,25)           111.3744         calculate D2E/DX2 analytically  !
 ! A53   A(17,22,28)           109.5589         calculate D2E/DX2 analytically  !
 ! A54   A(17,22,29)           109.3871         calculate D2E/DX2 analytically  !
 ! A55   A(25,22,28)           109.5649         calculate D2E/DX2 analytically  !
 ! A56   A(25,22,29)           109.3914         calculate D2E/DX2 analytically  !
 ! A57   A(28,22,29)           107.4801         calculate D2E/DX2 analytically  !
 ! A58   A(19,25,22)           111.2962         calculate D2E/DX2 analytically  !
 ! A59   A(19,25,30)           109.5686         calculate D2E/DX2 analytically  !
 ! A60   A(19,25,31)           109.4108         calculate D2E/DX2 analytically  !
 ! A61   A(22,25,30)           109.5728         calculate D2E/DX2 analytically  !
 ! A62   A(22,25,31)           109.42           calculate D2E/DX2 analytically  !
 ! A63   A(30,25,31)           107.4917         calculate D2E/DX2 analytically  !
 ! A64   A(1,32,33)            109.59           calculate D2E/DX2 analytically  !
 ! A65   A(1,32,34)            109.586          calculate D2E/DX2 analytically  !
 ! A66   A(1,32,35)            107.5042         calculate D2E/DX2 analytically  !
 ! A67   A(33,32,34)           111.2413         calculate D2E/DX2 analytically  !
 ! A68   A(33,32,35)           109.4252         calculate D2E/DX2 analytically  !
 ! A69   A(34,32,35)           109.4158         calculate D2E/DX2 analytically  !
 ! A70   A(32,33,36)           111.3625         calculate D2E/DX2 analytically  !
 ! A71   A(32,33,37)           109.3908         calculate D2E/DX2 analytically  !
 ! A72   A(32,33,38)           109.5638         calculate D2E/DX2 analytically  !
 ! A73   A(36,33,37)           109.3968         calculate D2E/DX2 analytically  !
 ! A74   A(36,33,38)           109.5595         calculate D2E/DX2 analytically  !
 ! A75   A(37,33,38)           107.4839         calculate D2E/DX2 analytically  !
 ! A76   A(32,34,39)           111.2657         calculate D2E/DX2 analytically  !
 ! A77   A(32,34,40)           109.4111         calculate D2E/DX2 analytically  !
 ! A78   A(32,34,41)           109.5868         calculate D2E/DX2 analytically  !
 ! A79   A(39,34,40)           109.4233         calculate D2E/DX2 analytically  !
 ! A80   A(39,34,41)           109.5746         calculate D2E/DX2 analytically  !
 ! A81   A(40,34,41)           107.5            calculate D2E/DX2 analytically  !
 ! A82   A(33,36,42)           111.3094         calculate D2E/DX2 analytically  !
 ! A83   A(33,36,43)           109.5772         calculate D2E/DX2 analytically  !
 ! A84   A(33,36,44)           109.4042         calculate D2E/DX2 analytically  !
 ! A85   A(42,36,43)           109.5749         calculate D2E/DX2 analytically  !
 ! A86   A(42,36,44)           109.4074         calculate D2E/DX2 analytically  !
 ! A87   A(43,36,44)           107.4863         calculate D2E/DX2 analytically  !
 ! A88   A(34,39,42)           111.3744         calculate D2E/DX2 analytically  !
 ! A89   A(34,39,45)           109.5589         calculate D2E/DX2 analytically  !
 ! A90   A(34,39,46)           109.3871         calculate D2E/DX2 analytically  !
 ! A91   A(42,39,45)           109.5649         calculate D2E/DX2 analytically  !
 ! A92   A(42,39,46)           109.3914         calculate D2E/DX2 analytically  !
 ! A93   A(45,39,46)           107.4801         calculate D2E/DX2 analytically  !
 ! A94   A(36,42,39)           111.2962         calculate D2E/DX2 analytically  !
 ! A95   A(36,42,47)           109.5686         calculate D2E/DX2 analytically  !
 ! A96   A(36,42,48)           109.4108         calculate D2E/DX2 analytically  !
 ! A97   A(39,42,47)           109.5728         calculate D2E/DX2 analytically  !
 ! A98   A(39,42,48)           109.42           calculate D2E/DX2 analytically  !
 ! A99   A(47,42,48)           107.4917         calculate D2E/DX2 analytically  !
 ! D1    D(15,1,2,3)           179.9985         calculate D2E/DX2 analytically  !
 ! D2    D(15,1,2,4)           -59.9864         calculate D2E/DX2 analytically  !
 ! D3    D(15,1,2,5)            60.0069         calculate D2E/DX2 analytically  !
 ! D4    D(32,1,2,3)           -60.0015         calculate D2E/DX2 analytically  !
 ! D5    D(32,1,2,4)            60.0136         calculate D2E/DX2 analytically  !
 ! D6    D(32,1,2,5)          -179.9932         calculate D2E/DX2 analytically  !
 ! D7    D(2,1,15,16)          176.0579         calculate D2E/DX2 analytically  !
 ! D8    D(2,1,15,17)          -61.6117         calculate D2E/DX2 analytically  !
 ! D9    D(2,1,15,18)           57.2163         calculate D2E/DX2 analytically  !
 ! D10   D(32,1,15,16)          56.0579         calculate D2E/DX2 analytically  !
 ! D11   D(32,1,15,17)         178.3883         calculate D2E/DX2 analytically  !
 ! D12   D(32,1,15,18)         -62.7836         calculate D2E/DX2 analytically  !
 ! D13   D(2,1,32,33)           32.867          calculate D2E/DX2 analytically  !
 ! D14   D(2,1,32,34)          155.1974         calculate D2E/DX2 analytically  !
 ! D15   D(2,1,32,35)          -85.9745         calculate D2E/DX2 analytically  !
 ! D16   D(15,1,32,33)         152.867          calculate D2E/DX2 analytically  !
 ! D17   D(15,1,32,34)         -84.8026         calculate D2E/DX2 analytically  !
 ! D18   D(15,1,32,35)          34.0255         calculate D2E/DX2 analytically  !
 ! D19   D(1,2,3,6)            -60.0395         calculate D2E/DX2 analytically  !
 ! D20   D(1,2,3,7)             60.0161         calculate D2E/DX2 analytically  !
 ! D21   D(1,2,3,8)            179.9887         calculate D2E/DX2 analytically  !
 ! D22   D(4,2,3,6)           -178.603          calculate D2E/DX2 analytically  !
 ! D23   D(4,2,3,7)            -58.5474         calculate D2E/DX2 analytically  !
 ! D24   D(4,2,3,8)             61.4253         calculate D2E/DX2 analytically  !
 ! D25   D(5,2,3,6)             58.5042         calculate D2E/DX2 analytically  !
 ! D26   D(5,2,3,7)            178.5598         calculate D2E/DX2 analytically  !
 ! D27   D(5,2,3,8)            -61.4675         calculate D2E/DX2 analytically  !
 ! D28   D(1,2,4,9)             60.0107         calculate D2E/DX2 analytically  !
 ! D29   D(1,2,4,10)           179.9842         calculate D2E/DX2 analytically  !
 ! D30   D(1,2,4,11)           -60.0426         calculate D2E/DX2 analytically  !
 ! D31   D(3,2,4,9)            178.5705         calculate D2E/DX2 analytically  !
 ! D32   D(3,2,4,10)           -61.456          calculate D2E/DX2 analytically  !
 ! D33   D(3,2,4,11)            58.5172         calculate D2E/DX2 analytically  !
 ! D34   D(5,2,4,9)            -58.5358         calculate D2E/DX2 analytically  !
 ! D35   D(5,2,4,10)            61.4376         calculate D2E/DX2 analytically  !
 ! D36   D(5,2,4,11)          -178.5891         calculate D2E/DX2 analytically  !
 ! D37   D(1,2,5,12)           179.9689         calculate D2E/DX2 analytically  !
 ! D38   D(1,2,5,13)           -60.0544         calculate D2E/DX2 analytically  !
 ! D39   D(1,2,5,14)            60.0009         calculate D2E/DX2 analytically  !
 ! D40   D(3,2,5,12)            61.4235         calculate D2E/DX2 analytically  !
 ! D41   D(3,2,5,13)          -178.5999         calculate D2E/DX2 analytically  !
 ! D42   D(3,2,5,14)           -58.5446         calculate D2E/DX2 analytically  !
 ! D43   D(4,2,5,12)           -61.4791         calculate D2E/DX2 analytically  !
 ! D44   D(4,2,5,13)            58.4975         calculate D2E/DX2 analytically  !
 ! D45   D(4,2,5,14)           178.5528         calculate D2E/DX2 analytically  !
 ! D46   D(1,15,16,19)         176.5953         calculate D2E/DX2 analytically  !
 ! D47   D(1,15,16,20)          55.5492         calculate D2E/DX2 analytically  !
 ! D48   D(1,15,16,21)         -62.0382         calculate D2E/DX2 analytically  !
 ! D49   D(17,15,16,19)         55.2571         calculate D2E/DX2 analytically  !
 ! D50   D(17,15,16,20)        -65.7889         calculate D2E/DX2 analytically  !
 ! D51   D(17,15,16,21)        176.6237         calculate D2E/DX2 analytically  !
 ! D52   D(18,15,16,19)        -65.7573         calculate D2E/DX2 analytically  !
 ! D53   D(18,15,16,20)        173.1966         calculate D2E/DX2 analytically  !
 ! D54   D(18,15,16,21)         55.6092         calculate D2E/DX2 analytically  !
 ! D55   D(1,15,17,22)        -176.5771         calculate D2E/DX2 analytically  !
 ! D56   D(1,15,17,23)         -55.5468         calculate D2E/DX2 analytically  !
 ! D57   D(1,15,17,24)          62.0853         calculate D2E/DX2 analytically  !
 ! D58   D(16,15,17,22)        -55.2366         calculate D2E/DX2 analytically  !
 ! D59   D(16,15,17,23)         65.7936         calculate D2E/DX2 analytically  !
 ! D60   D(16,15,17,24)       -176.5742         calculate D2E/DX2 analytically  !
 ! D61   D(18,15,17,22)         65.7833         calculate D2E/DX2 analytically  !
 ! D62   D(18,15,17,23)       -173.1864         calculate D2E/DX2 analytically  !
 ! D63   D(18,15,17,24)        -55.5543         calculate D2E/DX2 analytically  !
 ! D64   D(15,16,19,25)        -55.1928         calculate D2E/DX2 analytically  !
 ! D65   D(15,16,19,26)       -176.5529         calculate D2E/DX2 analytically  !
 ! D66   D(15,16,19,27)         65.8411         calculate D2E/DX2 analytically  !
 ! D67   D(20,16,19,25)         65.8497         calculate D2E/DX2 analytically  !
 ! D68   D(20,16,19,26)        -55.5104         calculate D2E/DX2 analytically  !
 ! D69   D(20,16,19,27)       -173.1163         calculate D2E/DX2 analytically  !
 ! D70   D(21,16,19,25)       -176.5618         calculate D2E/DX2 analytically  !
 ! D71   D(21,16,19,26)         62.0781         calculate D2E/DX2 analytically  !
 ! D72   D(21,16,19,27)        -55.5279         calculate D2E/DX2 analytically  !
 ! D73   D(15,17,22,25)         55.2381         calculate D2E/DX2 analytically  !
 ! D74   D(15,17,22,28)        176.6158         calculate D2E/DX2 analytically  !
 ! D75   D(15,17,22,29)        -65.8064         calculate D2E/DX2 analytically  !
 ! D76   D(23,17,22,25)        -65.785          calculate D2E/DX2 analytically  !
 ! D77   D(23,17,22,28)         55.5927         calculate D2E/DX2 analytically  !
 ! D78   D(23,17,22,29)        173.1705         calculate D2E/DX2 analytically  !
 ! D79   D(24,17,22,25)        176.5828         calculate D2E/DX2 analytically  !
 ! D80   D(24,17,22,28)        -62.0395         calculate D2E/DX2 analytically  !
 ! D81   D(24,17,22,29)         55.5383         calculate D2E/DX2 analytically  !
 ! D82   D(16,19,25,22)         55.0823         calculate D2E/DX2 analytically  !
 ! D83   D(16,19,25,30)        176.4253         calculate D2E/DX2 analytically  !
 ! D84   D(16,19,25,31)        -65.9633         calculate D2E/DX2 analytically  !
 ! D85   D(26,19,25,22)        176.4437         calculate D2E/DX2 analytically  !
 ! D86   D(26,19,25,30)        -62.2133         calculate D2E/DX2 analytically  !
 ! D87   D(26,19,25,31)         55.3981         calculate D2E/DX2 analytically  !
 ! D88   D(27,19,25,22)        -65.9498         calculate D2E/DX2 analytically  !
 ! D89   D(27,19,25,30)         55.3933         calculate D2E/DX2 analytically  !
 ! D90   D(27,19,25,31)        173.0046         calculate D2E/DX2 analytically  !
 ! D91   D(17,22,25,19)        -55.1527         calculate D2E/DX2 analytically  !
 ! D92   D(17,22,25,30)       -176.4932         calculate D2E/DX2 analytically  !
 ! D93   D(17,22,25,31)         65.8876         calculate D2E/DX2 analytically  !
 ! D94   D(28,22,25,19)       -176.5268         calculate D2E/DX2 analytically  !
 ! D95   D(28,22,25,30)         62.1326         calculate D2E/DX2 analytically  !
 ! D96   D(28,22,25,31)        -55.4866         calculate D2E/DX2 analytically  !
 ! D97   D(29,22,25,19)         65.8893         calculate D2E/DX2 analytically  !
 ! D98   D(29,22,25,30)        -55.4512         calculate D2E/DX2 analytically  !
 ! D99   D(29,22,25,31)       -173.0704         calculate D2E/DX2 analytically  !
 ! D100  D(1,32,33,36)         176.5953         calculate D2E/DX2 analytically  !
 ! D101  D(1,32,33,37)          55.5492         calculate D2E/DX2 analytically  !
 ! D102  D(1,32,33,38)         -62.0382         calculate D2E/DX2 analytically  !
 ! D103  D(34,32,33,36)         55.2571         calculate D2E/DX2 analytically  !
 ! D104  D(34,32,33,37)        -65.7889         calculate D2E/DX2 analytically  !
 ! D105  D(34,32,33,38)        176.6237         calculate D2E/DX2 analytically  !
 ! D106  D(35,32,33,36)        -65.7573         calculate D2E/DX2 analytically  !
 ! D107  D(35,32,33,37)        173.1966         calculate D2E/DX2 analytically  !
 ! D108  D(35,32,33,38)         55.6092         calculate D2E/DX2 analytically  !
 ! D109  D(1,32,34,39)        -176.5771         calculate D2E/DX2 analytically  !
 ! D110  D(1,32,34,40)         -55.5468         calculate D2E/DX2 analytically  !
 ! D111  D(1,32,34,41)          62.0853         calculate D2E/DX2 analytically  !
 ! D112  D(33,32,34,39)        -55.2366         calculate D2E/DX2 analytically  !
 ! D113  D(33,32,34,40)         65.7936         calculate D2E/DX2 analytically  !
 ! D114  D(33,32,34,41)       -176.5742         calculate D2E/DX2 analytically  !
 ! D115  D(35,32,34,39)         65.7833         calculate D2E/DX2 analytically  !
 ! D116  D(35,32,34,40)       -173.1864         calculate D2E/DX2 analytically  !
 ! D117  D(35,32,34,41)        -55.5543         calculate D2E/DX2 analytically  !
 ! D118  D(32,33,36,42)        -55.1928         calculate D2E/DX2 analytically  !
 ! D119  D(32,33,36,43)       -176.5529         calculate D2E/DX2 analytically  !
 ! D120  D(32,33,36,44)         65.8411         calculate D2E/DX2 analytically  !
 ! D121  D(37,33,36,42)         65.8497         calculate D2E/DX2 analytically  !
 ! D122  D(37,33,36,43)        -55.5104         calculate D2E/DX2 analytically  !
 ! D123  D(37,33,36,44)       -173.1163         calculate D2E/DX2 analytically  !
 ! D124  D(38,33,36,42)       -176.5618         calculate D2E/DX2 analytically  !
 ! D125  D(38,33,36,43)         62.0781         calculate D2E/DX2 analytically  !
 ! D126  D(38,33,36,44)        -55.5279         calculate D2E/DX2 analytically  !
 ! D127  D(32,34,39,42)         55.2381         calculate D2E/DX2 analytically  !
 ! D128  D(32,34,39,45)        176.6158         calculate D2E/DX2 analytically  !
 ! D129  D(32,34,39,46)        -65.8064         calculate D2E/DX2 analytically  !
 ! D130  D(40,34,39,42)        -65.785          calculate D2E/DX2 analytically  !
 ! D131  D(40,34,39,45)         55.5927         calculate D2E/DX2 analytically  !
 ! D132  D(40,34,39,46)        173.1705         calculate D2E/DX2 analytically  !
 ! D133  D(41,34,39,42)        176.5828         calculate D2E/DX2 analytically  !
 ! D134  D(41,34,39,45)        -62.0395         calculate D2E/DX2 analytically  !
 ! D135  D(41,34,39,46)         55.5383         calculate D2E/DX2 analytically  !
 ! D136  D(33,36,42,39)         55.0823         calculate D2E/DX2 analytically  !
 ! D137  D(33,36,42,47)        176.4253         calculate D2E/DX2 analytically  !
 ! D138  D(33,36,42,48)        -65.9633         calculate D2E/DX2 analytically  !
 ! D139  D(43,36,42,39)        176.4437         calculate D2E/DX2 analytically  !
 ! D140  D(43,36,42,47)        -62.2133         calculate D2E/DX2 analytically  !
 ! D141  D(43,36,42,48)         55.3981         calculate D2E/DX2 analytically  !
 ! D142  D(44,36,42,39)        -65.9498         calculate D2E/DX2 analytically  !
 ! D143  D(44,36,42,47)         55.3933         calculate D2E/DX2 analytically  !
 ! D144  D(44,36,42,48)        173.0046         calculate D2E/DX2 analytically  !
 ! D145  D(34,39,42,36)        -55.1527         calculate D2E/DX2 analytically  !
 ! D146  D(34,39,42,47)       -176.4932         calculate D2E/DX2 analytically  !
 ! D147  D(34,39,42,48)         65.8876         calculate D2E/DX2 analytically  !
 ! D148  D(45,39,42,36)       -176.5268         calculate D2E/DX2 analytically  !
 ! D149  D(45,39,42,47)         62.1326         calculate D2E/DX2 analytically  !
 ! D150  D(45,39,42,48)        -55.4866         calculate D2E/DX2 analytically  !
 ! D151  D(46,39,42,36)         65.8893         calculate D2E/DX2 analytically  !
 ! D152  D(46,39,42,47)        -55.4512         calculate D2E/DX2 analytically  !
 ! D153  D(46,39,42,48)       -173.0704         calculate D2E/DX2 analytically  !
 --------------------------------------------------------------------------------
 Trust Radius=3.00D-01 FncErr=1.00D-07 GrdErr=1.00D-06
 Number of steps in this run=    288 maximum allowed number of steps=    288.
 GradGradGradGradGradGradGradGradGradGradGradGradGradGradGradGradGradGrad

                          Input orientation:                          
 ---------------------------------------------------------------------
 Center     Atomic      Atomic             Coordinates (Angstroms)
 Number     Number       Type             X           Y           Z
 ---------------------------------------------------------------------
      1         15           0        0.161290   -1.496416    0.000000
      2          6           0        0.767967   -0.638467    1.486024
      3          6           0        0.251136   -1.374119    2.704262
      4          6           0        2.281680   -0.651057    1.457995
      5          6           0        0.246477    0.782706    1.460835
      6          1           0       -0.865264   -1.384094    2.707515
      7          1           0        0.616781   -2.428989    2.705309
      8          1           0        0.602759   -0.877363    3.640472
      9          1           0        2.657830   -0.130115    0.544975
     10          1           0        2.694544   -0.131963    2.356335
     11          1           0        2.661591   -1.700859    1.450920
     12          1           0        0.597349    1.344828    2.359652
     13          1           0        0.609282    1.313623    0.548170
     14          1           0       -0.869958    0.786886    1.455186
     15          6           0        0.765249   -0.636548   -1.486022
     16          6           0        0.343465   -1.402986   -2.723132
     17          6           0        0.226769    0.779828   -1.507486
     18          1           0        1.885091   -0.608876   -1.428074
     19          6           0        0.754452   -0.677933   -3.988412
     20          1           0       -0.770141   -1.537873   -2.716040
     21          1           0        0.806464   -2.423792   -2.708306
     22          6           0        0.638457    1.505134   -2.772416
     23          1           0       -0.892648    0.754156   -1.439714
     24          1           0        0.605836    1.339540   -0.613354
     25          6           0        0.218225    0.738815   -4.009995
     26          1           0        0.373920   -1.237175   -4.882240
     27          1           0        1.873851   -0.653892   -4.057307
     28          1           0        0.175112    2.525737   -2.787502
     29          1           0        1.752058    1.640512   -2.778398
     30          1           0        0.592542    1.268048   -4.924541
     31          1           0       -0.901616    0.712703   -4.070178
     32          6           0        0.770651   -3.211372   -0.001665
     33          6           0        0.874769   -3.714898    1.423604
     34          6           0       -0.159392   -4.080161   -0.824325
     35          1           0        1.789362   -3.206986   -0.471110
     36          6           0        1.299948   -5.168512    1.465725
     37          1           0       -0.118931   -3.602518    1.931830
     38          1           0        1.614729   -3.090907    1.989048
     39          6           0        0.266285   -5.533668   -0.782850
     40          1           0       -1.204779   -3.986170   -0.428500
     41          1           0       -0.167525   -3.721381   -1.886234
     42          6           0        0.371906   -6.037671    0.642025
     43          1           0        1.306513   -5.527306    2.527661
     44          1           0        2.346056   -5.262398    1.071742
     45          1           0       -0.473878   -6.157733   -1.347869
     46          1           0        1.259596   -5.645468   -1.292068
     47          1           0        0.749347   -7.093195    0.639994
     48          1           0       -0.646811   -6.044780    1.111609
 ---------------------------------------------------------------------
                    Distance matrix (angstroms):
                    1          2          3          4          5
     1  P    0.000000
     2  C    1.820000   0.000000
     3  C    2.708516   1.514068   0.000000
     4  C    2.708585   1.514025   2.489801   0.000000
     5  C    2.708448   1.514041   2.489584   2.489525   0.000000
     6  H    2.897769   2.171507   1.116449   3.464376   2.735910
     7  H    2.897561   2.171515   1.116444   2.736553   3.464221
     8  H    3.719027   2.173939   1.116645   2.762825   2.762894
     9  H    2.897670   2.171538   3.464426   1.116456   2.736177
    10  H    3.719062   2.173865   2.763015   1.116661   2.762530
    11  H    2.898011   2.171570   2.736406   1.116452   3.464241
    12  H    3.718974   2.173890   2.762479   2.762881   1.116676
    13  H    2.897845   2.171499   3.464240   2.735812   1.116448
    14  H    2.897328   2.171493   2.736235   3.464176   1.116457
    15  C    1.820000   2.972048   4.285651   3.311648   3.311702
    16  C    2.730817   4.299033   5.428256   4.669464   4.721465
    17  C    2.730950   3.356421   4.730635   3.881259   2.968388
    18  H    2.408031   3.121027   4.509059   2.913496   3.601021
    19  C    4.114509   5.474595   6.747583   5.656544   5.664432
    20  H    2.871612   4.564214   5.518106   5.246201   4.885170
    21  H    2.934484   4.558648   5.541308   4.762029   5.289324
    22  C    4.113792   4.769289   6.199526   5.024512   4.312304
    23  H    2.872044   3.641015   4.796909   4.521913   3.116345
    24  H    2.935382   2.888977   4.300736   3.325871   2.177490
    25  C    4.591248   5.692569   7.038950   6.007371   5.471079
    26  H    4.893740   6.408472   7.588731   6.646929   6.658135
    27  H    4.483799   5.652587   6.990762   5.530361   5.929760
    28  H    4.893677   5.350392   6.736032   5.705602   4.592561
    29  H    4.482226   4.934316   6.434308   4.845494   4.579705
    30  H    5.663863   6.690360   8.080608   6.875530   6.413138
    31  H    4.751455   5.956891   7.181692   6.523336   5.649347
    32  C    1.820000   2.972047   3.311711   3.311952   4.285595
    33  C    2.730817   3.078917   2.740118   3.371602   4.541429
    34  C    2.730950   4.247701   4.465660   4.788169   5.388335
    35  H    2.408031   3.386873   3.975994   3.239845   4.693671
    36  C    4.114509   4.561219   4.126912   4.622906   6.043743
    37  H    2.871612   3.125848   2.387333   3.833872   4.425556
    38  H    2.934484   2.642820   2.306139   2.584513   4.141980
    39  C    4.113792   5.418714   5.427893   5.737865   6.703066
    40  H    2.872044   4.331772   4.330900   5.180468   5.330846
    41  H    2.935382   4.663864   5.172772   5.158426   5.626817
    42  C    4.591248   5.479106   5.100600   5.773097   6.870497
    43  H    4.893740   5.027503   4.288819   5.086545   6.486760
    44  H    4.483799   4.903338   4.708771   4.627937   6.411155
    45  H    4.893677   6.327355   6.310972   6.766791   7.521797
    46  H    4.482226   5.747134   5.935660   5.792378   7.065855
    47  H    5.663863   6.509963   6.100593   6.672204   7.934511
    48  H    4.751455   5.600893   5.015767   6.147218   6.894526
                    6          7          8          9         10
     6  H    0.000000
     7  H    1.813357   0.000000
     8  H    1.811706   1.811704   0.000000
     9  H    4.319865   3.757359   3.789961   0.000000
    10  H    3.789907   3.116924   2.565189   1.811733   0.000000
    11  H    3.757402   2.506973   3.116260   1.813281   1.811712
    12  H    3.115647   3.789663   2.564890   3.116744   2.564985
    13  H    3.756957   4.319774   3.789828   2.506180   3.115686
    14  H    2.506292   3.757000   3.116744   3.756949   3.789727
    15  C    4.561047   4.560936   5.134719   2.821930   4.329030
    16  C    5.563569   5.531306   6.390538   4.202025   5.739692
    17  C    4.862235   5.310014   5.421174   3.309177   4.674440
    18  H    5.026779   4.691085   5.235134   2.172386   3.899284
    19  C    6.925141   6.920335   7.632998   4.947176   6.657166
    20  H    5.426568   5.666451   6.536542   4.936294   6.301557
    21  H    5.762531   5.416939   6.537578   4.390029   5.870939
    22  C    6.374830   6.744128   6.841251   4.213905   5.762958
    23  H    4.666087   5.439853   5.541335   4.162550   5.297466
    24  H    4.539877   5.021499   4.796844   2.777101   3.917535
    25  C    7.127806   7.435666   7.828764   5.239701   6.886260
    26  H    7.691654   7.684419   8.533374   5.991369   7.681391
    27  H    7.334764   7.103814   7.805218   4.697869   6.486968
    28  H    6.823809   7.410489   7.285796   4.931820   6.314267
    29  H    6.789245   6.922480   6.990170   3.873029   5.513205
    30  H    8.210196   8.478400   8.829629   6.011313   7.706465
    31  H    7.094716   7.621218   8.015334   5.888942   7.412550
    32  C    3.654424   2.821968   4.329082   3.654368   4.329468
    33  C    3.179432   1.833818   3.611108   4.099020   4.125408
    34  C    4.498991   3.973301   5.547360   5.041288   5.818060
    35  H    4.524779   3.474171   4.872400   3.354669   4.274292
    36  C    4.533432   3.083549   4.861025   5.298781   5.301407
    37  H    2.465786   1.586414   3.296477   4.657398   4.487828
    38  H    3.095120   1.395373   2.941269   3.455387   3.171160
    39  C    5.539134   4.682855   6.431187   6.056484   6.702936
    40  H    4.089090   3.945079   5.430324   5.544058   6.149386
    41  H    5.201180   4.834013   6.263087   5.175964   6.250981
    42  C    5.239524   4.164096   5.972668   6.335147   6.573500
    43  H    4.681364   3.179129   4.832763   5.906503   5.573663
    44  H    5.294296   3.699614   5.372709   5.168657   5.300283
    45  H    6.275902   5.614385   7.343365   7.051428   7.750480
    46  H    6.218601   5.170877   6.891750   5.979039   6.765254
    47  H    6.282948   5.102736   6.903689   7.220514   7.428888
    48  H    4.931189   4.148552   5.887170   6.798897   6.904738
                   11         12         13         14         15
    11  H    0.000000
    12  H    3.789867   0.000000
    13  H    3.756864   1.811790   0.000000
    14  H    4.319807   1.811725   1.813362   0.000000
    15  C    3.654380   4.329348   2.822310   3.653872   0.000000
    16  C    4.783842   5.783566   4.260521   4.870963   1.515180
    17  C    4.564464   3.925725   2.158003   3.159160   1.515435
    18  H    3.175529   4.452203   3.037965   4.225120   1.121681
    19  C    5.854048   6.664395   4.956607   5.866615   2.502755
    20  H    5.400639   5.995219   4.548506   4.776358   2.163967
    21  H    4.611213   6.319053   4.961027   5.518470   2.165621
    22  C    5.675212   5.134736   3.326233   4.545748   2.501538
    23  H    5.197641   4.123611   2.553523   2.895175   2.164446
    24  H    4.210864   2.973023   1.161819   2.600434   2.166076
    25  C    6.460931   6.409633   4.610879   5.572671   2.925970
    26  H    6.749619   7.691662   6.004276   6.768089   3.471050
    27  H    5.661911   6.841177   5.165334   6.323916   2.800144
    28  H    6.481582   5.297738   3.575533   4.702784   3.470182
    29  H    5.466181   5.274499   3.532541   5.052413   2.798040
    30  H    7.330884   7.284599   5.472926   6.562876   3.934555
    31  H    7.000303   6.632435   4.896229   5.525953   3.358091
    32  C    2.822641   5.134668   4.561134   4.560711   2.972047
    33  C    2.692551   5.153055   5.111056   4.828160   4.237234
    34  C    4.335407   6.335682   5.618497   5.421182   3.626468
    35  H    2.592952   5.491186   4.781990   5.170456   2.947202
    36  C    3.725441   6.611834   6.583085   6.338405   5.434833
    37  H    3.402776   5.017202   5.158803   4.478626   4.610907
    38  H    1.821465   4.565977   4.742039   4.636373   4.338387
    39  C    5.041591   7.569586   6.983885   6.800681   4.972444
    40  H    4.868643   6.280207   5.686169   5.142222   4.027323
    41  H    4.819025   6.654251   5.646328   5.655349   3.247526
    42  C    4.970403   7.583031   7.355724   6.984128   5.818542
    43  H    4.199679   6.910671   7.155615   6.764337   6.349971
    44  H    3.595539   6.955007   6.821625   6.861750   5.517208
    45  H    6.126019   8.436923   7.783917   7.499449   5.660213
    46  H    5.004948   7.914409   7.227609   7.311469   5.036990
    47  H    5.778543   8.612813   8.408486   8.085936   6.797682
    48  H    5.470860   7.596832   7.486076   6.843939   6.163649
                   16         17         18         19         20
    16  C    0.000000
    17  C    2.501217   0.000000
    18  H    2.164347   2.164448   0.000000
    19  C    1.515106   2.925493   2.799722   0.000000
    20  H    1.121768   2.797529   3.093889   2.163981   0.000000
    21  H    1.120996   3.470042   2.469079   2.165502   1.808479
    22  C    2.923459   1.515125   2.798284   2.501576   3.353688
    23  H    2.797928   1.121761   3.094160   3.355544   2.626293
    24  H    3.470079   1.120911   2.469126   3.934882   3.820223
    25  C    2.501802   2.502859   3.355745   1.514985   2.799016
    26  H    2.165680   3.934326   3.822258   1.120931   2.468141
    27  H    2.164081   3.357085   2.629642   1.121775   3.093722
    28  H    3.932856   2.165481   3.820716   3.470061   4.172714
    29  H    3.354112   2.163908   2.626940   2.799024   4.058018
    30  H    3.470254   3.471082   4.173584   2.165501   3.821986
    31  H    2.800160   2.800919   4.061159   2.164050   2.629841
    32  C    3.295320   4.300347   3.170112   4.723635   3.541536
    33  C    4.777304   5.404975   4.335919   6.207056   4.958006
    34  C    3.320481   4.922938   4.073603   4.735157   3.227201
    35  H    3.227481   4.405730   2.770401   4.454050   3.791663
    36  C    5.713192   6.736056   5.432012   7.085935   5.912188
    37  H    5.169180   5.581519   4.926150   6.660725   5.127332
    38  H    5.164284   5.397664   4.232057   6.503272   5.498852
    39  C    4.564338   6.355068   5.224024   5.838844   4.558265
    40  H    3.786190   5.091982   4.685357   5.239847   3.378744
    41  H    2.517233   4.534291   3.756439   3.812055   2.412349
    42  C    5.727599   7.149808   6.003903   7.093241   5.729664
    43  H    6.745984   7.564933   6.338261   8.141278   6.908290
    44  H    5.771178   6.903063   5.302531   7.011111   6.158739
    45  H    5.016674   6.974678   6.030007   6.205600   4.827295
    46  H    4.570108   6.511341   5.077105   5.674666   4.797902
    47  H    6.622222   8.177362   6.900233   7.910610   6.665839
    48  H    6.101814   7.361934   6.512264   7.535038   5.914247
                   21         22         23         24         25
    21  H    0.000000
    22  C    3.933039   0.000000
    23  H    3.820427   2.164334   0.000000
    24  H    4.311814   2.165649   1.808590   0.000000
    25  C    3.470230   1.515071   2.800110   3.471063   0.000000
    26  H    2.514188   3.470100   4.173797   4.991656   2.165546
    27  H    2.468130   2.799739   4.060531   4.176415   2.164017
    28  H    4.990262   1.120958   2.468834   2.513863   2.165512
    29  H    4.173443   1.121816   3.093892   2.468161   2.163916
    30  H    4.311281   2.165631   3.822812   4.311800   1.120980
    31  H    3.822280   2.164245   2.630806   3.822953   1.121760
    32  C    2.819127   5.471744   4.534310   4.594794   5.654721
    33  C    4.329469   6.701580   5.594176   5.456085   7.056246
    34  C    2.688089   5.968848   4.928183   5.477521   5.789094
    35  H    2.566033   5.368861   4.880781   4.700198   5.528247
    36  C    5.019915   7.933283   6.951766   6.867249   8.127124
    37  H    4.876127   6.985104   5.562963   5.605995   7.366554
    38  H    4.812845   6.689413   5.729560   5.236337   7.252966
    39  C    3.697365   7.324044   6.427389   6.883677   7.054135
    40  H    3.418134   6.248671   4.857024   5.628116   6.097338
    41  H    1.818844   5.362032   4.555833   5.275531   4.955048
    42  C    4.947088   8.283922   7.215376   7.486918   8.221050
    43  H    6.107144   8.831328   7.748106   7.583568   9.120833
    44  H    4.971598   7.968246   7.279804   7.032318   8.146549
    45  H    4.175211   7.873129   6.925173   7.610151   7.424843
    46  H    3.548275   7.328598   6.753454   7.048289   7.016455
    47  H    5.746103   9.251384   8.282648   8.526576   9.123862
    48  H    5.460340   8.587129   7.266032   7.685883   8.543786
                   26         27         28         29         30
    26  H    0.000000
    27  H    1.808460   0.000000
    28  H    4.311260   3.822063   0.000000
    29  H    3.821845   2.629588   1.808443   0.000000
    30  H    2.515100   2.467327   2.514551   2.467617   0.000000
    31  H    2.467480   3.093697   2.468136   3.093785   1.808550
    32  C    5.279666   4.919959   6.405465   5.675754   6.658201
    33  C    6.793646   6.356753   7.560983   6.863444   8.075168
    34  C    4.983339   5.130845   6.899554   6.340200   6.780893
    35  H    5.034054   4.402980   6.390273   5.368725   6.425835
    36  C    7.523935   7.156469   8.863220   8.036155   9.097540
    37  H    7.229751   6.966731   7.740417   7.292202   8.440286
    38  H    7.224302   6.524155   7.512298   6.718164   8.236690
    39  C    5.939397   6.092500   8.305477   7.593325   7.970156
    40  H    5.466724   5.809500   7.062148   6.776759   7.145037
    41  H    3.929439   4.276711   6.321089   5.764603   5.890960
    42  C    7.318625   7.302372   9.226719   8.518134   9.187430
    43  H    8.612874   8.211812   9.715068   8.929188  10.110485
    44  H    7.452626   6.911472   8.958896   7.926322   9.037530
    45  H    6.117388   6.568498   8.825893   8.234915   8.310961
    46  H    5.753851   5.739310   8.377411   7.452328   7.838145
    47  H    8.057852   8.049458  10.227479   9.432310  10.044850
    48  H    7.751206   7.882456   9.451581   8.941501   9.562874
                   31         32         33         34         35
    31  H    0.000000
    32  C    5.894713   0.000000
    33  C    7.276045   1.515180   0.000000
    34  C    5.835923   1.515435   2.501217   0.000000
    35  H    5.963104   1.121681   2.164347   2.164448   0.000000
    36  C    8.371487   2.502755   1.515106   2.925493   2.799722
    37  H    7.433561   2.163967   1.121768   2.797529   3.093889
    38  H    7.583776   2.165621   1.120996   3.470042   2.469079
    39  C    7.154556   2.501538   2.923459   1.515125   2.798284
    40  H    5.952574   2.164446   2.797928   1.121761   3.094160
    41  H    4.996958   2.166076   3.470079   1.120911   2.469126
    42  C    8.330321   2.925970   2.501802   2.502859   3.355745
    43  H    9.345856   3.471050   2.165680   3.934326   3.822258
    44  H    8.525757   2.800144   2.164081   3.357085   2.629642
    45  H    7.402487   3.470182   3.932856   2.165481   3.820716
    46  H    7.267397   2.798040   3.354112   2.163908   2.626940
    47  H    9.265173   3.934555   3.470254   3.471082   4.173584
    48  H    8.519355   3.358091   2.800160   2.800919   4.061159
                   36         37         38         39         40
    36  C    0.000000
    37  H    2.163981   0.000000
    38  H    2.165502   1.808479   0.000000
    39  C    2.501576   3.353688   3.933039   0.000000
    40  H    3.355544   2.626293   3.820427   2.164334   0.000000
    41  H    3.934882   3.820223   4.311814   2.165649   1.808590
    42  C    1.514985   2.799016   3.470230   1.515071   2.800110
    43  H    1.120931   2.468141   2.514188   3.470100   4.173797
    44  H    1.121775   3.093722   2.468130   2.799739   4.060531
    45  H    3.470061   4.172714   4.990262   1.120958   2.468834
    46  H    2.799024   4.058018   4.173443   1.121816   3.093892
    47  H    2.165501   3.821986   4.311281   2.165631   3.822812
    48  H    2.164050   2.629841   3.822280   2.164245   2.630806
                   41         42         43         44         45
    41  H    0.000000
    42  C    3.471063   0.000000
    43  H    4.991656   2.165546   0.000000
    44  H    4.176415   2.164017   1.808460   0.000000
    45  H    2.513863   2.165512   4.311260   3.822063   0.000000
    46  H    2.468161   2.163916   3.821845   2.629588   1.808443
    47  H    4.311800   1.120980   2.515100   2.467327   2.514551
    48  H    3.822953   1.121760   2.467480   3.093697   2.468136
                   46         47         48
    46  H    0.000000
    47  H    2.467617   0.000000
    48  H    3.093785   1.808550   0.000000
 Symmetry turned off by external request.
 Stoichiometry    C16H31P
 Framework group  C1[X(C16H31P)]
 Deg. of freedom   138
 Full point group                 C1      NOp   1
 Rotational constants (GHZ):      0.5966300      0.3027894      0.2180936
 Standard basis: def2SVP (5D, 7F)
   397 basis functions,   654 primitive gaussians,   414 cartesian basis functions
    71 alpha electrons       71 beta electrons
       nuclear repulsion energy      1525.4549885682 Hartrees.
 NAtoms=   48 NActive=   48 NUniq=   48 SFac= 1.00D+00 NAtFMM=   60 NAOKFM=F Big=F
 Integral buffers will be    131072 words long.
 Raffenetti 2 integral format.
 Two-electron integral symmetry is turned off.
 Nuclear repulsion after empirical dispersion term =     1525.3990115556 Hartrees.
 Force inversion solution in PCM.
 ------------------------------------------------------------------------------
 Polarizable Continuum Model (PCM)
 =================================
 Model                : C-PCM.
 Atomic radii         : UFF (Universal Force Field).
 Polarization charges : Total charges.
 Charge compensation  : None.
 Solution method      : Matrix inversion.
 Cavity type          : Scaled VdW (van der Waals Surface) (Alpha=1.100).
 Cavity algorithm     : GePol (No added spheres)
                        Default sphere list used, NSphG=   48.
                        Lebedev-Laikov grids with approx.  5.0 points / Ang**2.
                        Smoothing algorithm: Karplus/York (Gamma=1.0000).
                        Polarization charges: spherical gaussians, with
                                              point-specific exponents (IZeta= 3).
                        Self-potential: point-specific (ISelfS= 7).
                        Self-field    : sphere-specific E.n sum rule (ISelfD= 2).
 1st derivatives      : Analytical E(r).r(x)/FMM algorithm (CHGder, D1EAlg=3).
                        Cavity 1st derivative terms included.
 2nd derivatives      : Analytical E(r).r(xy)/FMM algorithm (CHGder, D2EAlg=3).
                        Cavity 2nd derivative terms included.
 Solvent              : DiChloroEthane, Eps=  10.125000 Eps(inf)=   2.087447
 ------------------------------------------------------------------------------
 One-electron integrals computed using PRISM.
   1 Symmetry operations used in ECPInt.
 ECPInt:  NShTT=   19503 NPrTT=   67119 LenC2=   18337 LenP2D=   45976.
 LDataN:  DoStor=T MaxTD1= 4 Len=   56
 NBasis=   397 RedAO= T EigKep=  9.65D-04  NBF=   397
 NBsUse=   397 1.00D-06 EigRej= -1.00D+00 NBFU=   397
 ExpMin= 1.05D-01 ExpMax= 8.00D+03 ExpMxC= 1.20D+03 IAcc=1 IRadAn=         1 AccDes= 0.00D+00
 Harris functional with IExCor=  402 and IRadAn=       1 diagonalized for initial guess.
 HarFok:  IExCor=  402 AccDes= 0.00D+00 IRadAn=         1 IDoV= 1 UseB2=F ITyADJ=14
 ICtDFT=  3500011 ScaDFX=  1.000000  1.000000  1.000000  1.000000
 FoFCou: FMM=F IPFlag=           0 FMFlag=      100000 FMFlg1=           0
         NFxFlg=           0 DoJE=T BraDBF=F KetDBF=T FulRan=T
         wScrn=  0.000000 ICntrl=     500 IOpCl=  0 I1Cent=   200000004 NGrid=           0
         NMat0=    1 NMatS0=      1 NMatT0=    0 NMatD0=    1 NMtDS0=    0 NMtDT0=    0
 Symmetry not used in FoFCou.
 Requested convergence on RMS density matrix=1.00D-08 within 128 cycles.
 Requested convergence on MAX density matrix=1.00D-06.
 Requested convergence on             energy=1.00D-06.
 No special actions if energy rises.
 Inv3:  Mode=1 IEnd=    21805248.
 Iteration    1 A*A^-1 deviation from unit magnitude is 9.44D-15 for   2668.
 Iteration    1 A*A^-1 deviation from orthogonality  is 1.99D-15 for   1634   1535.
 Iteration    1 A^-1*A deviation from unit magnitude is 9.44D-15 for   2668.
 Iteration    1 A^-1*A deviation from orthogonality  is 1.61D-15 for   2696   2642.
 Error on total polarization charges =  0.01541
 SCF Done:  E(RB3LYP) =  -969.173422331     A.U. after   12 cycles
            NFock= 12  Conv=0.30D-08     -V/T= 2.0089
 DoSCS=F DFT=T ScalE2(SS,OS)=  1.000000  1.000000
 Range of M.O.s used for correlation:     1   397
 NBasis=   397 NAE=    71 NBE=    71 NFC=     0 NFV=     0
 NROrb=    397 NOA=    71 NOB=    71 NVA=   326 NVB=   326
   1 Symmetry operations used in ECPInt.
 ECPInt:  NShTT=   19503 NPrTT=   67119 LenC2=   18337 LenP2D=   45976.
 LDataN:  DoStor=T MaxTD1= 5 Len=  102
 Symmetrizing basis deriv contribution to polar:
 IMax=3 JMax=2 DiffMx= 0.00D+00
 G2DrvN: will do    49 centers at a time, making    1 passes.
 Calling FoFCou, ICntrl=  3107 FMM=F I1Cent=   0 AccDes= 0.00D+00.
 NEqPCM:  Using equilibrium solvation (IEInf=0, Eps=  10.1250, EpsInf=   2.0874)
 G2PCM: DoFxE=T DoFxN=T DoGrad=T DoDP/DQ/DG/TGxP=FFFF NFrqRd=   0 IEInf=0 SqF1=F DoCFld=F IF1Alg=4.
 End of G2Drv F.D. properties file   721 does not exist.
 End of G2Drv F.D. properties file   722 does not exist.
 End of G2Drv F.D. properties file   788 does not exist.
          IDoAtm=111111111111111111111111111111111111111111111111
 NEqPCM:  Using equilibrium solvation (IEInf=0, Eps=  10.1250, EpsInf=   2.0874)
          Differentiating once with respect to nuclear coordinates.
          There are   147 degrees of freedom in the 1st order CPHF.  IDoFFX=6 NUNeed=     0.
    144 vectors produced by pass  0 Test12= 2.31D-14 1.00D-09 XBig12= 8.35D-02 8.09D-02.
 AX will form    36 AO Fock derivatives at one time.
    141 vectors produced by pass  1 Test12= 2.31D-14 1.00D-09 XBig12= 2.22D-02 1.59D-02.
    141 vectors produced by pass  2 Test12= 2.31D-14 1.00D-09 XBig12= 1.04D-04 2.04D-03.
    141 vectors produced by pass  3 Test12= 2.31D-14 1.00D-09 XBig12= 3.23D-07 6.47D-05.
    141 vectors produced by pass  4 Test12= 2.31D-14 1.00D-09 XBig12= 3.97D-10 1.84D-06.
     64 vectors produced by pass  5 Test12= 2.31D-14 1.00D-09 XBig12= 2.87D-13 4.05D-08.
      2 vectors produced by pass  6 Test12= 2.31D-14 1.00D-09 XBig12= 3.83D-16 1.33D-09.
 InvSVY:  IOpt=1 It=  1 EMax= 4.44D-16
 Solved reduced A of dimension   774 with   147 vectors.
 End of Minotr F.D. properties file   721 does not exist.
 End of Minotr F.D. properties file   722 does not exist.
 End of Minotr F.D. properties file   788 does not exist.

 **********************************************************************

            Population analysis using the SCF density.

 **********************************************************************

 Alpha  occ. eigenvalues --  -77.01754 -10.18771 -10.18474 -10.18349 -10.18283
 Alpha  occ. eigenvalues --  -10.18183 -10.18020 -10.17912 -10.17896 -10.17894
 Alpha  occ. eigenvalues --  -10.17821 -10.17808 -10.17780 -10.17760 -10.17599
 Alpha  occ. eigenvalues --  -10.17281 -10.16355  -6.51766  -4.68373  -4.68361
 Alpha  occ. eigenvalues --   -4.67825  -0.84388  -0.83104  -0.81148  -0.75100
 Alpha  occ. eigenvalues --   -0.74263  -0.73721  -0.73143  -0.67861  -0.67581
 Alpha  occ. eigenvalues --   -0.63849  -0.60900  -0.59509  -0.59228  -0.56437
 Alpha  occ. eigenvalues --   -0.54633  -0.54057  -0.52263  -0.48245  -0.47672
 Alpha  occ. eigenvalues --   -0.45830  -0.44743  -0.44469  -0.44155  -0.43847
 Alpha  occ. eigenvalues --   -0.43582  -0.43147  -0.42710  -0.40178  -0.39702
 Alpha  occ. eigenvalues --   -0.39065  -0.38575  -0.38497  -0.37220  -0.36481
 Alpha  occ. eigenvalues --   -0.35803  -0.35444  -0.35150  -0.34374  -0.33739
 Alpha  occ. eigenvalues --   -0.33559  -0.33397  -0.32520  -0.32451  -0.31545
 Alpha  occ. eigenvalues --   -0.31189  -0.30744  -0.27962  -0.26983  -0.26752
 Alpha  occ. eigenvalues --   -0.18921
 Alpha virt. eigenvalues --    0.04184   0.05485   0.05588   0.06295   0.06761
 Alpha virt. eigenvalues --    0.07732   0.08612   0.08653   0.09096   0.09666
 Alpha virt. eigenvalues --    0.10682   0.11542   0.11619   0.12082   0.12420
 Alpha virt. eigenvalues --    0.12832   0.12950   0.13191   0.13693   0.14220
 Alpha virt. eigenvalues --    0.14612   0.14764   0.14897   0.15132   0.15459
 Alpha virt. eigenvalues --    0.16500   0.16873   0.17249   0.17856   0.18443
 Alpha virt. eigenvalues --    0.19138   0.19597   0.20497   0.21214   0.21967
 Alpha virt. eigenvalues --    0.22459   0.23655   0.24233   0.24588   0.24846
 Alpha virt. eigenvalues --    0.25615   0.26725   0.27044   0.27846   0.28583
 Alpha virt. eigenvalues --    0.29130   0.29989   0.31342   0.33226   0.35749
 Alpha virt. eigenvalues --    0.39081   0.40613   0.41040   0.41659   0.41688
 Alpha virt. eigenvalues --    0.42297   0.42935   0.43448   0.44215   0.45357
 Alpha virt. eigenvalues --    0.45848   0.46275   0.48929   0.49881   0.51024
 Alpha virt. eigenvalues --    0.51856   0.53886   0.54384   0.54838   0.56293
 Alpha virt. eigenvalues --    0.57833   0.59322   0.59782   0.60314   0.60943
 Alpha virt. eigenvalues --    0.61469   0.62034   0.62405   0.62834   0.63068
 Alpha virt. eigenvalues --    0.63478   0.63977   0.64093   0.64353   0.64797
 Alpha virt. eigenvalues --    0.65385   0.65667   0.65825   0.65956   0.66260
 Alpha virt. eigenvalues --    0.66610   0.66932   0.67485   0.67616   0.67960
 Alpha virt. eigenvalues --    0.68019   0.68264   0.68556   0.68818   0.69301
 Alpha virt. eigenvalues --    0.69686   0.69829   0.70212   0.70900   0.71200
 Alpha virt. eigenvalues --    0.71476   0.71577   0.72196   0.72540   0.72702
 Alpha virt. eigenvalues --    0.73159   0.73768   0.74600   0.74829   0.75269
 Alpha virt. eigenvalues --    0.76155   0.76800   0.77302   0.78005   0.78900
 Alpha virt. eigenvalues --    0.80503   0.81433   0.82686   0.84223   0.86184
 Alpha virt. eigenvalues --    0.87654   0.88313   0.90355   0.91058   0.93003
 Alpha virt. eigenvalues --    0.93270   0.94721   0.95425   0.96702   0.98081
 Alpha virt. eigenvalues --    1.00934   1.02720   1.03265   1.05468   1.08711
 Alpha virt. eigenvalues --    1.09142   1.10308   1.11585   1.12351   1.13065
 Alpha virt. eigenvalues --    1.14347   1.15983   1.16395   1.17166   1.18017
 Alpha virt. eigenvalues --    1.20262   1.22742   1.23036   1.23549   1.27088
 Alpha virt. eigenvalues --    1.28574   1.30162   1.32129   1.32753   1.33940
 Alpha virt. eigenvalues --    1.34536   1.35291   1.36729   1.39048   1.39816
 Alpha virt. eigenvalues --    1.42934   1.44127   1.45533   1.47252   1.48736
 Alpha virt. eigenvalues --    1.52069   1.52766   1.54378   1.55133   1.58722
 Alpha virt. eigenvalues --    1.59090   1.59957   1.61457   1.64116   1.66252
 Alpha virt. eigenvalues --    1.67343   1.68989   1.70381   1.70691   1.72345
 Alpha virt. eigenvalues --    1.73607   1.74604   1.75142   1.75876   1.76597
 Alpha virt. eigenvalues --    1.76752   1.77314   1.77466   1.77926   1.78056
 Alpha virt. eigenvalues --    1.78905   1.79302   1.79466   1.79954   1.80301
 Alpha virt. eigenvalues --    1.80434   1.81143   1.81364   1.82127   1.82555
 Alpha virt. eigenvalues --    1.82916   1.83294   1.83969   1.84327   1.84551
 Alpha virt. eigenvalues --    1.84978   1.85230   1.85613   1.86657   1.86923
 Alpha virt. eigenvalues --    1.88123   1.88297   1.89529   1.90087   1.90529
 Alpha virt. eigenvalues --    1.90979   1.91638   1.92696   1.92961   1.94189
 Alpha virt. eigenvalues --    1.94242   1.94610   1.95242   1.95497   1.96830
 Alpha virt. eigenvalues --    1.97459   1.97740   1.99219   2.00512   2.01556
 Alpha virt. eigenvalues --    2.02518   2.03441   2.04381   2.05670   2.06630
 Alpha virt. eigenvalues --    2.08784   2.10337   2.10786   2.13294   2.14420
 Alpha virt. eigenvalues --    2.15608   2.15738   2.16728   2.18697   2.19830
 Alpha virt. eigenvalues --    2.21659   2.22221   2.23584   2.25610   2.25975
 Alpha virt. eigenvalues --    2.26626   2.27735   2.28681   2.29879   2.30760
 Alpha virt. eigenvalues --    2.33372   2.35324   2.37401   2.37994   2.38396
 Alpha virt. eigenvalues --    2.40482   2.41622   2.42849   2.43055   2.43367
 Alpha virt. eigenvalues --    2.43939   2.45359   2.45763   2.46360   2.49761
 Alpha virt. eigenvalues --    2.51684   2.52517   2.53599   2.54222   2.56210
 Alpha virt. eigenvalues --    2.57626   2.58283   2.58829   2.59486   2.60390
 Alpha virt. eigenvalues --    2.61168   2.61968   2.62961   2.64923   2.66458
 Alpha virt. eigenvalues --    2.66516   2.68258   2.72879   2.76881   2.78330
 Alpha virt. eigenvalues --    2.78666   2.84485   2.85714   2.86591   2.87025
 Alpha virt. eigenvalues --    2.87933   2.88479   2.88877   2.89487   2.91117
 Alpha virt. eigenvalues --    2.91802   2.92109   2.92612   2.93003   2.95307
 Alpha virt. eigenvalues --    2.96021   2.96762   2.98753   3.00845   3.02084
 Alpha virt. eigenvalues --    3.02550   3.03220   3.06232   3.06635   3.07093
 Alpha virt. eigenvalues --    3.07448   3.08369   3.11484   3.11862   3.12562
 Alpha virt. eigenvalues --    3.51854
          Condensed to atoms (all electrons):
               1          2          3          4          5          6
     1  P   14.696296   0.231224  -0.079522  -0.031304  -0.093764   0.013834
     2  C    0.231224   5.271492   0.392795   0.308089   0.417424  -0.029374
     3  C   -0.079522   0.392795   4.651562  -0.047336  -0.039798   0.363330
     4  C   -0.031304   0.308089  -0.047336   4.668807  -0.055117   0.011987
     5  C   -0.093764   0.417424  -0.039798  -0.055117   4.606807  -0.010009
     6  H    0.013834  -0.029374   0.363330   0.011987  -0.010009   0.693304
     7  H   -0.010564  -0.023984   0.426182  -0.010499   0.010386  -0.030225
     8  H    0.009210  -0.016789   0.348323  -0.011240  -0.011955  -0.023682
     9  H   -0.004437  -0.030225   0.008878   0.381342  -0.005207  -0.000557
    10  H    0.005760  -0.009418  -0.008910   0.348928  -0.008050  -0.000465
    11  H   -0.004526  -0.030703  -0.004537   0.388702   0.008652   0.000330
    12  H    0.009096  -0.014381  -0.012576  -0.010560   0.340815  -0.001210
    13  H   -0.007645  -0.018781   0.010235  -0.008871   0.396974   0.000216
    14  H    0.013775  -0.024011  -0.009091   0.011925   0.367250   0.008203
    15  C    0.241761  -0.007707   0.004592  -0.015617  -0.001798  -0.000179
    16  C   -0.092891   0.005639  -0.000098  -0.000273  -0.000265  -0.000025
    17  C   -0.094161   0.005521  -0.000416  -0.001767  -0.022668  -0.000065
    18  H    0.009086  -0.015682  -0.000086   0.005305  -0.000293   0.000048
    19  C    0.008960  -0.000126   0.000002   0.000000  -0.000028   0.000000
    20  H    0.020234  -0.000502  -0.000022   0.000044  -0.000054   0.000015
    21  H   -0.015294   0.000188  -0.000004  -0.000023   0.000009   0.000000
    22  C    0.009445  -0.000141   0.000010   0.000011   0.001412   0.000002
    23  H    0.021147  -0.005145  -0.000125   0.000472   0.003049   0.000065
    24  H   -0.010324   0.002934  -0.000499   0.000818  -0.046344  -0.000009
    25  C    0.000136  -0.000008  -0.000000   0.000003  -0.000099  -0.000000
    26  H   -0.000354   0.000003  -0.000000   0.000000  -0.000000   0.000000
    27  H    0.000347   0.000003  -0.000000  -0.000007  -0.000000   0.000000
    28  H   -0.000398  -0.000014  -0.000000   0.000000   0.000130   0.000000
    29  H    0.000279  -0.000050   0.000000   0.000008   0.000142  -0.000000
    30  H    0.000048  -0.000001   0.000000   0.000000   0.000003  -0.000000
    31  H   -0.000265   0.000007  -0.000000  -0.000000   0.000002  -0.000000
    32  C    0.205417  -0.003331  -0.003863  -0.013999   0.005713  -0.003269
    33  C   -0.058381   0.009522  -0.048759  -0.010431  -0.000707   0.000301
    34  C   -0.109715   0.006876  -0.000857  -0.000415  -0.000046  -0.000110
    35  H    0.004573  -0.009074  -0.000025   0.003875  -0.000322   0.000092
    36  C    0.007879   0.000633   0.003391  -0.000236   0.000017  -0.000170
    37  H    0.013226  -0.010492  -0.011074   0.002197  -0.000476   0.005720
    38  H   -0.020361   0.015253  -0.045065  -0.004481   0.000001   0.001453
    39  C    0.011779  -0.000202  -0.000027   0.000010   0.000002   0.000018
    40  H    0.020711  -0.000706  -0.000121   0.000086  -0.000054   0.000191
    41  H   -0.002997  -0.000017   0.000017   0.000001   0.000001  -0.000003
    42  C    0.000160   0.000019  -0.000269  -0.000016   0.000000   0.000037
    43  H   -0.000303  -0.000029   0.000639   0.000017  -0.000000   0.000008
    44  H    0.000406  -0.000139  -0.000111   0.000098  -0.000001  -0.000006
    45  H   -0.000466   0.000004  -0.000001  -0.000000  -0.000000   0.000000
    46  H    0.000032   0.000007   0.000001  -0.000003  -0.000000  -0.000000
    47  H    0.000042  -0.000001   0.000008   0.000000   0.000000  -0.000001
    48  H   -0.000213   0.000006  -0.000047  -0.000001  -0.000000  -0.000020
               7          8          9         10         11         12
     1  P   -0.010564   0.009210  -0.004437   0.005760  -0.004526   0.009096
     2  C   -0.023984  -0.016789  -0.030225  -0.009418  -0.030703  -0.014381
     3  C    0.426182   0.348323   0.008878  -0.008910  -0.004537  -0.012576
     4  C   -0.010499  -0.011240   0.381342   0.348928   0.388702  -0.010560
     5  C    0.010386  -0.011955  -0.005207  -0.008050   0.008652   0.340815
     6  H   -0.030225  -0.023682  -0.000557  -0.000465   0.000330  -0.001210
     7  H    0.717543  -0.013229   0.000378  -0.000548   0.001614   0.000290
     8  H   -0.013229   0.710069   0.000086   0.007228  -0.001292   0.008535
     9  H    0.000378   0.000086   0.671484  -0.023250  -0.019158  -0.001435
    10  H   -0.000548   0.007228  -0.023250   0.704679  -0.024642   0.006950
    11  H    0.001614  -0.001292  -0.019158  -0.024642   0.664677   0.000076
    12  H    0.000290   0.008535  -0.001435   0.006950   0.000076   0.699787
    13  H   -0.000834   0.000443   0.006510  -0.001135   0.000389   0.001611
    14  H   -0.000021  -0.001245   0.000202  -0.000479  -0.000588  -0.024662
    15  C    0.000092  -0.000190  -0.001529   0.000848  -0.001436   0.000020
    16  C    0.000014   0.000004   0.000040   0.000013  -0.000058   0.000014
    17  C    0.000054  -0.000001  -0.001094   0.000055   0.000126   0.001690
    18  H   -0.000059   0.000010   0.007018  -0.000933   0.001160   0.000030
    19  C    0.000000  -0.000000   0.000016  -0.000000   0.000000  -0.000000
    20  H   -0.000005   0.000000   0.000002  -0.000001   0.000004   0.000002
    21  H   -0.000001   0.000000   0.000016   0.000000  -0.000012  -0.000000
    22  C   -0.000001  -0.000000   0.000020  -0.000006  -0.000004  -0.000092
    23  H   -0.000006   0.000005  -0.000015  -0.000023   0.000001   0.000013
    24  H    0.000042  -0.000005   0.000132  -0.000008  -0.000186  -0.001306
    25  C    0.000000   0.000000   0.000008  -0.000000   0.000000   0.000003
    26  H    0.000000   0.000000  -0.000000   0.000000  -0.000000   0.000000
    27  H   -0.000000   0.000000  -0.000026   0.000000   0.000000  -0.000000
    28  H   -0.000000   0.000000   0.000001  -0.000000  -0.000000  -0.000002
    29  H   -0.000000   0.000000  -0.000013   0.000002   0.000001   0.000002
    30  H   -0.000000  -0.000000   0.000000  -0.000000   0.000000  -0.000000
    31  H   -0.000000   0.000000  -0.000002   0.000000   0.000000  -0.000000
    32  C    0.001381   0.000155  -0.001578   0.000739   0.003989  -0.000210
    33  C   -0.048603   0.001107   0.000770   0.000089  -0.010545   0.000013
    34  C   -0.000213   0.000010  -0.000042   0.000020   0.000087   0.000004
    35  H   -0.000385   0.000062   0.000506  -0.000336   0.003280   0.000012
    36  C    0.008672  -0.000228  -0.000012   0.000005  -0.000258  -0.000000
    37  H   -0.011108   0.000985  -0.000087  -0.000140   0.000759   0.000009
    38  H   -0.004453   0.002898  -0.000786   0.000589   0.009883   0.000030
    39  C    0.000090  -0.000000   0.000001  -0.000001   0.000010  -0.000000
    40  H   -0.000406   0.000010   0.000002  -0.000002   0.000010   0.000001
    41  H    0.000019  -0.000001   0.000001  -0.000000   0.000009  -0.000000
    42  C   -0.000330   0.000004   0.000001   0.000000  -0.000012  -0.000000
    43  H   -0.001335  -0.000019   0.000000  -0.000003   0.000005   0.000000
    44  H   -0.000457   0.000018  -0.000003  -0.000003   0.000161   0.000000
    45  H    0.000004   0.000000  -0.000000   0.000000  -0.000000   0.000000
    46  H   -0.000024   0.000000   0.000000   0.000000  -0.000007   0.000000
    47  H    0.000002  -0.000000  -0.000000  -0.000000   0.000001  -0.000000
    48  H   -0.000045   0.000002   0.000000   0.000000  -0.000005   0.000000
              13         14         15         16         17         18
     1  P   -0.007645   0.013775   0.241761  -0.092891  -0.094161   0.009086
     2  C   -0.018781  -0.024011  -0.007707   0.005639   0.005521  -0.015682
     3  C    0.010235  -0.009091   0.004592  -0.000098  -0.000416  -0.000086
     4  C   -0.008871   0.011925  -0.015617  -0.000273  -0.001767   0.005305
     5  C    0.396974   0.367250  -0.001798  -0.000265  -0.022668  -0.000293
     6  H    0.000216   0.008203  -0.000179  -0.000025  -0.000065   0.000048
     7  H   -0.000834  -0.000021   0.000092   0.000014   0.000054  -0.000059
     8  H    0.000443  -0.001245  -0.000190   0.000004  -0.000001   0.000010
     9  H    0.006510   0.000202  -0.001529   0.000040  -0.001094   0.007018
    10  H   -0.001135  -0.000479   0.000848   0.000013   0.000055  -0.000933
    11  H    0.000389  -0.000588  -0.001436  -0.000058   0.000126   0.001160
    12  H    0.001611  -0.024662   0.000020   0.000014   0.001690   0.000030
    13  H    0.736639  -0.033153   0.003608  -0.000331  -0.042238   0.001150
    14  H   -0.033153   0.684649  -0.003589  -0.000093   0.001880   0.000238
    15  C    0.003608  -0.003589   5.139946   0.391808   0.394725   0.308345
    16  C   -0.000331  -0.000093   0.391808   4.716166  -0.037168  -0.028427
    17  C   -0.042238   0.001880   0.394725  -0.037168   4.753993  -0.032106
    18  H    0.001150   0.000238   0.308345  -0.028427  -0.032106   0.740732
    19  C   -0.000051   0.000003  -0.043835   0.422339  -0.026436  -0.008167
    20  H    0.000014   0.000037  -0.031523   0.353518  -0.012710   0.011647
    21  H    0.000012   0.000002  -0.014700   0.353574   0.009703  -0.009735
    22  C    0.002250   0.000169  -0.046400  -0.026304   0.407763  -0.007103
    23  H   -0.000521   0.001163  -0.028436  -0.012477   0.345366   0.012023
    24  H   -0.024071   0.002520  -0.020526   0.010090   0.375109  -0.011680
    25  C   -0.000171   0.000000  -0.021486  -0.048752  -0.049601  -0.005186
    26  H   -0.000000   0.000000   0.009631  -0.021428   0.001141  -0.000030
    27  H    0.000006  -0.000000  -0.009009  -0.010696  -0.007755   0.007586
    28  H    0.000209  -0.000001   0.009316   0.001271  -0.017316   0.000032
    29  H    0.000288  -0.000012  -0.007854  -0.008345  -0.014182   0.007053
    30  H    0.000007  -0.000000   0.001348   0.009006   0.009052  -0.000047
    31  H   -0.000025  -0.000004  -0.008736  -0.004466  -0.005078   0.000419
    32  C   -0.000144  -0.000282  -0.008809   0.004100   0.005651  -0.012969
    33  C    0.000090   0.000011   0.003771   0.000197  -0.000095  -0.000234
    34  C    0.000005  -0.000043   0.003201  -0.004064  -0.000172  -0.000808
    35  H    0.000021   0.000030  -0.012681  -0.003332  -0.000135   0.008021
    36  C   -0.000001  -0.000000  -0.000089  -0.000002   0.000002  -0.000015
    37  H    0.000018   0.000066  -0.000347  -0.000060  -0.000013   0.000063
    38  H    0.000039   0.000009   0.000392   0.000020  -0.000027   0.000043
    39  C   -0.000000   0.000001  -0.000310  -0.000102   0.000002   0.000061
    40  H   -0.000000   0.000030  -0.001224  -0.000802  -0.000048   0.000146
    41  H   -0.000001  -0.000001  -0.003374   0.004090  -0.000199   0.000285
    42  C    0.000000   0.000000  -0.000009  -0.000006  -0.000000   0.000001
    43  H   -0.000000   0.000000   0.000002  -0.000000  -0.000000   0.000000
    44  H    0.000000  -0.000000  -0.000006  -0.000004  -0.000000   0.000001
    45  H    0.000000  -0.000000  -0.000003   0.000026  -0.000000  -0.000000
    46  H    0.000000  -0.000000   0.000047   0.000036   0.000001  -0.000018
    47  H   -0.000000  -0.000000  -0.000000   0.000000   0.000000  -0.000000
    48  H    0.000000  -0.000000   0.000005  -0.000001  -0.000000  -0.000000
              19         20         21         22         23         24
     1  P    0.008960   0.020234  -0.015294   0.009445   0.021147  -0.010324
     2  C   -0.000126  -0.000502   0.000188  -0.000141  -0.005145   0.002934
     3  C    0.000002  -0.000022  -0.000004   0.000010  -0.000125  -0.000499
     4  C    0.000000   0.000044  -0.000023   0.000011   0.000472   0.000818
     5  C   -0.000028  -0.000054   0.000009   0.001412   0.003049  -0.046344
     6  H    0.000000   0.000015   0.000000   0.000002   0.000065  -0.000009
     7  H    0.000000  -0.000005  -0.000001  -0.000001  -0.000006   0.000042
     8  H   -0.000000   0.000000   0.000000  -0.000000   0.000005  -0.000005
     9  H    0.000016   0.000002   0.000016   0.000020  -0.000015   0.000132
    10  H   -0.000000  -0.000001   0.000000  -0.000006  -0.000023  -0.000008
    11  H    0.000000   0.000004  -0.000012  -0.000004   0.000001  -0.000186
    12  H   -0.000000   0.000002  -0.000000  -0.000092   0.000013  -0.001306
    13  H   -0.000051   0.000014   0.000012   0.002250  -0.000521  -0.024071
    14  H    0.000003   0.000037   0.000002   0.000169   0.001163   0.002520
    15  C   -0.043835  -0.031523  -0.014700  -0.046400  -0.028436  -0.020526
    16  C    0.422339   0.353518   0.353574  -0.026304  -0.012477   0.010090
    17  C   -0.026436  -0.012710   0.009703   0.407763   0.345366   0.375109
    18  H   -0.008167   0.011647  -0.009735  -0.007103   0.012023  -0.011680
    19  C    4.594338  -0.027828  -0.011143  -0.054137  -0.006527   0.001356
    20  H   -0.027828   0.720278  -0.039155  -0.006705   0.009756  -0.000207
    21  H   -0.011143  -0.039155   0.694942   0.001287  -0.000081  -0.000427
    22  C   -0.054137  -0.006705   0.001287   4.612691  -0.026880  -0.007508
    23  H   -0.006527   0.009756  -0.000081  -0.026880   0.726550  -0.032979
    24  H    0.001356  -0.000207  -0.000427  -0.007508  -0.032979   0.737836
    25  C    0.442681  -0.004814   0.007823   0.439043  -0.004815   0.007931
    26  H    0.350331  -0.008338  -0.004067   0.008812   0.000017   0.000036
    27  H    0.345331   0.009395  -0.010549  -0.005168   0.000490  -0.000018
    28  H    0.008783   0.000012   0.000036   0.345861  -0.008544  -0.006026
    29  H   -0.004716   0.000499   0.000053   0.347866   0.009314  -0.010485
    30  H   -0.016297  -0.000078  -0.000435  -0.015907  -0.000064  -0.000431
    31  H   -0.020994   0.006024   0.000057  -0.018864   0.005849   0.000323
    32  C   -0.000165  -0.005538   0.008261  -0.000131  -0.000470   0.000125
    33  C    0.000005  -0.000106   0.000110   0.000002  -0.000010  -0.000013
    34  C    0.000282  -0.001913  -0.012155  -0.000005  -0.000074   0.000001
    35  H   -0.000133   0.001020   0.002967   0.000001   0.000091  -0.000014
    36  C   -0.000000  -0.000003   0.000022  -0.000000  -0.000000   0.000000
    37  H    0.000001   0.000032   0.000017   0.000000   0.000007  -0.000002
    38  H   -0.000000   0.000003  -0.000003   0.000000   0.000002  -0.000001
[...]
 .00001130,0.00000214,0.00002732,0.00000873,0.00000554,-0.00001375,-0.0
 0005810,-0.00000203,-0.00000595,0.00001458,-0.00006218,-0.00003014,-0.
 00003609,0.00001036,0.00002090,0.00001979,0.00004516,-0.00013588,-0.00
 006144,-0.00000063,0.00000804,0.00001910,0.00001108,0.00001469,0.00000
 870,0.00016836,-0.00020589,-0.00004542,-0.00010683,-0.00000723,0.00000
 098,-0.00010137,0.00006340,0.00015063,0.00000198,0.00001283,0.00000440
 ,0.00005654,-0.00000325,-0.00001405,0.00002143,-0.00001034,0.00000457,
 0.00001706,0.00001851,-0.00008321,0.00004371,-0.00005412,-0.00002698,0
 .00001461,-0.00000359,-0.00000297,0.00000520,0.00000173,-0.00001511,-0
 .00003627,0.00000290,0.00000935,-0.00000488,-0.00000124,0.00003846,-0.
 00001033,-0.00000281,0.00000213,-0.00001329,-0.00002695,0.00003318,-0.
 00000910,0.00000296,0.00000467,-0.00000065,-0.00001251,0.00001828,0.00
 000836,0.00000006,-0.00000172,0.00382921,-0.00476153,-0.00107657,0.000
 32845,-0.00019114,0.00049803,-0.02284323,-0.01706037,-0.00866878,0.000
 30172,0.00022998,0.00016859,0.00118217,-0.00090532,0.00244053,-0.00002
 611,0.00006274,-0.00007345,-0.00014456,0.00015073,-0.00010873,-0.11276
 852,-0.13280599,-0.04790513,0.00025758,0.00096789,-0.00028717,-0.00014
 439,0.00051575,0.00064334,0.01230088,0.00922823,0.00474806,0.00053653,
 0.00047398,0.00055765,-0.00008803,-0.00010045,-0.00004825,0.11988885,0
 .14503342,-0.00034496,0.00023515,0.00001430,0.00003317,-0.00006732,0.0
 0007005,-0.00002677,-0.00001367,-0.00000403,0.00000607,0.00000278,-0.0
 0001074,-0.00004163,-0.00000328,-0.00004058,0.00000263,0.00000438,0.00
 000322,0.00001011,0.00000517,0.00002511,0.00000748,-0.00001636,-0.0000
 1181,0.00000125,-0.00000724,0.00000342,-0.00001309,-0.00001013,-0.0000
 0923,0.00001632,0.00000464,0.00000022,0.00000886,-0.00002040,-0.000010
 37,0.00000108,-0.00000126,0.00000422,0.00000571,0.00000095,0.00000133,
 0.00007496,-0.00010221,-0.00000827,-0.00001482,-0.00002878,0.00000670,
 -0.00003320,0.00001441,0.00005560,0.00000490,0.00000485,-0.00000803,0.
 00000961,0.00000496,0.00000107,-0.00000180,0.00000592,-0.00000041,0.00
 002233,-0.00003243,0.00000483,0.00001207,-0.00001906,-0.00000846,0.000
 00365,-0.00000074,-0.00000003,0.00000026,0.00000337,-0.00000404,-0.000
 00662,-0.00000021,-0.00000157,-0.00000098,-0.00000076,0.00000795,-0.00
 000336,-0.00000186,0.00000054,-0.00000418,-0.00000692,0.00000977,-0.00
 000237,0.00000071,0.00000086,0.00000008,-0.00000103,0.00000427,0.00000
 156,0.00000044,-0.00000017,0.00115228,-0.00089455,0.00067735,0.0002079
 0,0.00047304,0.00030736,-0.00501175,-0.00408323,-0.00332078,-0.0003656
 8,-0.00015777,0.00007246,-0.00128511,0.00386498,-0.00361059,0.00007091
 ,-0.00002672,-0.00002960,0.00004723,-0.00009759,0.00004743,-0.06063776
 ,-0.04674494,-0.07301778,-0.00029304,0.00005649,0.00002987,0.00039857,
 0.00019091,0.00043575,-0.01933698,-0.01593094,-0.00867885,-0.00124411,
 -0.00091343,-0.00060975,-0.00023707,-0.00005546,0.00017803,0.06939599,
 0.05119352,0.07821187,0.00005063,-0.00019528,-0.00008133,0.00005726,0.
 00003829,-0.00003314,0.00000700,0.00001073,-0.00000548,-0.00000742,0.0
 0000851,0.00002626,0.00001704,-0.00000786,0.00001085,0.00000259,-0.000
 00303,-0.00000510,-0.00000404,-0.00000483,-0.00001226,-0.00000082,0.00
 000865,0.00000798,-0.00000008,0.00000491,-0.00000388,0.00001613,0.0000
 0783,0.00000656,-0.00000918,-0.00000505,-0.00000055,-0.00000333,0.0000
 1011,0.00000775,-0.00000091,0.00000227,-0.00000244,-0.00000314,-0.0000
 0107,-0.00000212,0.00000446,0.00002957,0.00002485,0.00004022,0.0000827
 4,-0.00004371,0.00001045,-0.00001178,-0.00004099,-0.00000240,0.0000065
 2,-0.00001483,-0.00000488,-0.00000622,0.00000148,0.00000165,-0.0000286
 9,0.00000457,-0.00003413,0.00008532,0.00001187,-0.00000668,0.00001120,
 0.00000768,-0.00000170,0.00000196,0.00000084,-0.00000024,-0.00000612,0
 .00000299,0.00000137,0.00000398,0.00000119,-0.00000177,0.00000055,-0.0
 0001149,0.00000330,0.00000411,-0.00000042,0.00000241,0.00000320,-0.000
 00788,0.00000171,-0.00000012,-0.00000095,-0.00000021,-0.00000114,-0.00
 000299,0.00000029,-0.00000165,0.00000061,0.00053955,-0.00081497,-0.000
 85433,0.00003443,0.00011119,-0.00015586,-0.00906547,-0.00027540,0.0084
 9708,0.00058948,-0.00005923,0.00005786,0.00103986,0.00019622,-0.000475
 94,-0.00019617,-0.00004938,0.00003806,0.00001912,-0.00001576,0.0000642
 1,-0.15909593,-0.01465429,0.12421155,0.00016418,0.00276705,0.00050247,
 -0.00001210,0.00002397,-0.00015778,0.00946883,0.00122217,-0.01189643,0
 .00014570,0.00012674,0.00023677,-0.00003267,0.00018238,0.00018010,-0.0
 1476090,-0.00123327,0.01672193,0.17057371,0.00014822,0.00005555,0.0004
 3372,-0.00013335,0.00008885,-0.00002804,0.00001070,0.00000288,-0.00001
 022,-0.00000638,-0.00000997,-0.00001844,0.00002915,0.00002336,0.000043
 60,-0.00000293,-0.00000252,0.00000200,-0.00000318,0.00000176,0.0000001
 2,-0.00000362,0.00000303,0.00000160,0.00000130,0.00000110,0.00000017,-
 0.00000614,-0.00000030,0.00000010,-0.00000108,0.00000103,-0.00000080,-
 0.00000709,0.00001797,0.00000646,0.00000076,-0.00000052,-0.00000111,-0
 .00000176,0.00000003,0.00000225,-0.00010661,-0.00003191,-0.00007150,0.
 00004003,-0.00015760,-0.00002794,-0.00002036,0.00000522,0.00004212,-0.
 00001847,-0.00002856,0.00003192,-0.00002146,0.00004946,0.00001932,-0.0
 0002049,0.00004473,-0.00001000,0.00002335,0.00000767,0.00003111,0.0000
 0157,-0.00001392,-0.00000484,0.00000142,0.00000234,-0.00000354,-0.0000
 0126,0.00000832,-0.00000056,0.00001558,-0.00000487,-0.00002089,-0.0000
 0070,-0.00000188,-0.00000191,0.00000497,0.00000155,-0.00000222,-0.0000
 0027,0.00000033,0.00000583,0.00000133,0.00000018,-0.00000025,-0.000000
 09,0.00001147,-0.00000144,-0.00000229,0.00000128,-0.00000003,0.0011814
 7,0.00136453,-0.00025584,0.00008433,-0.00014684,0.00002992,0.02076728,
 0.00065468,-0.02334770,-0.00055532,-0.00045579,0.00019839,-0.00022933,
 0.00016886,-0.00096492,-0.00005775,-0.00004833,0.00013066,-0.00006281,
 0.00006783,-0.00002261,-0.01541936,-0.04880010,0.01440619,0.00202264,-
 0.00521593,-0.00171161,-0.00017660,0.00096464,0.00041072,-0.00969133,-
 0.00248543,0.01170735,0.00006037,-0.00009385,-0.00008355,0.00021784,0.
 00028176,-0.00019790,-0.01115196,-0.00138623,0.01344298,0.01176306,0.0
 5519824,-0.00005574,0.00007140,0.00008402,-0.00006474,-0.00001102,0.00
 001722,-0.00000384,0.00000367,-0.00000165,0.00000108,-0.00000771,-0.00
 001281,-0.00000174,0.00000934,0.00000732,-0.00000097,0.00000075,0.0000
 0136,0.00000485,0.00000526,0.00001485,0.00000140,-0.00000535,-0.000002
 12,0.00000027,-0.00000520,0.00000171,-0.00000870,-0.00000303,-0.000002
 49,0.00000648,0.00000459,-0.00000251,0.00000195,0.00000038,-0.00000197
 ,0.00000076,-0.00000279,0.00000066,0.00000271,-0.00000056,0.00000047,0
 .00000712,-0.00001400,0.00000688,-0.00006548,-0.00002828,0.00004341,-0
 .00000705,0.00000478,0.00001125,-0.00001124,-0.00001171,0.00000834,0.0
 0000139,-0.00001494,-0.00000401,-0.00000645,0.00002579,-0.00000780,0.0
 0005134,-0.00014296,0.00001686,0.00000476,-0.00000462,-0.00000114,-0.0
 0000017,0.00000195,-0.00000020,0.00000113,0.00000376,-0.00000113,-0.00
 000497,-0.00000176,0.00000171,0.00000140,-0.00000010,0.00000453,-0.000
 00482,-0.00000423,0.00000224,-0.00000097,-0.00000067,0.00000237,-0.000
 00142,-0.00000037,0.00000012,0.00000113,-0.00000089,0.00000082,-0.0000
 0008,0.00000071,0.00000007,0.00041173,0.00053104,0.00008801,-0.0002585
 5,0.00003401,0.00001942,0.00431108,0.00004963,-0.00519665,-0.00036085,
 -0.00030466,-0.00005891,0.00143092,-0.00007011,0.00068674,0.00004741,0
 .00011448,0.00015548,-0.00001672,-0.00008144,-0.00003490,0.12225516,0.
 01364936,-0.18529735,0.00051894,-0.00124020,0.00072102,-0.00022355,-0.
 00033099,0.00069593,0.01714324,0.00284522,-0.02009867,-0.00028328,0.00
 013471,0.00041051,-0.00085189,-0.00040360,0.00001507,-0.00649872,-0.00
 022263,0.00788356,-0.13451376,-0.01693899,0.20254199,0.00001929,-0.000
 04920,0.00009349,0.00000323,0.00006924,-0.00005292,-0.00002586,0.00001
 688,-0.00007823,-0.00003895,0.00002182,0.00004215,0.00001603,0.0000030
 0,0.00002945,0.00000638,-0.00000416,-0.00000156,0.00002774,-0.00002404
 ,0.00005665,0.00002241,-0.00003837,0.00000537,0.00000449,-0.00001938,-
 0.00000176,0.00001756,-0.00000838,-0.00000187,0.00004141,-0.00000128,-
 0.00001495,-0.00000450,0.00001085,0.00000348,0.00000185,-0.00000591,-0
 .00000016,0.00000121,-0.00000312,-0.00000221,0.00002096,-0.00001906,-0
 .00000919,0.00003329,-0.00002821,-0.00002903,-0.00000243,-0.00000571,0
 .00001222,0.00000044,0.00000400,-0.00000435,-0.00000414,0.00002413,0.0
 0001973,0.00001103,-0.00001237,0.00000516,-0.00003147,0.00002126,0.000
 01858,-0.00000334,-0.00000251,-0.00000059,-0.00000130,0.00000116,0.,0.
 00000098,0.00000610,0.00000092,0.00000785,-0.00000304,-0.00000963,-0.0
 0000105,-0.00000122,-0.00000157,0.00000486,0.00000141,-0.00000349,0.00
 000008,0.00000221,0.00000038,0.00000073,-0.00000050,0.00000024,0.00000
 044,0.00000639,-0.00000200,-0.00000083,0.00000009,0.00000073,-0.000362
 50,0.00004149,-0.00010891,-0.00359482,-0.00216251,-0.00172761,-0.00061
 008,0.00055611,-0.00358350,0.00003904,0.00003894,0.00005572,0.01010449
 ,-0.02282163,-0.00617639,0.00009912,-0.00001252,-0.00015898,0.00037293
 ,-0.00125779,-0.00034899,-0.00607856,0.01170875,0.00500697,0.00028212,
 -0.00044608,-0.00008871,-0.00006169,0.00119553,0.00006810,-0.08804838,
 0.09180808,0.02677006,0.00077034,0.00063252,0.00019729,0.00098158,0.00
 032282,0.00040131,-0.00007434,-0.00016492,0.00032380,0.00076640,-0.000
 44726,-0.00024788,0.09347350,-0.00009145,0.00031379,-0.00002995,0.0000
 2764,-0.00001790,0.00006650,-0.00006034,-0.00000777,-0.00005690,-0.000
 03026,0.00001575,-0.00001178,-0.00005890,-0.00000004,-0.00004473,0.000
 00762,0.00000297,0.00000905,0.00003536,-0.00000451,0.00008736,0.000029
 11,-0.00005427,-0.00002235,0.00000596,-0.00002698,0.00000649,-0.000016
 33,-0.00003299,-0.00001900,0.00006271,-0.00000277,-0.00000888,0.000005
 21,-0.00003191,-0.00002075,0.00000382,-0.00000569,0.00000855,0.0000057
 6,0.00000229,0.00000322,0.00006945,-0.00005651,-0.00003377,-0.00006168
 ,0.00000810,0.00002650,-0.00004689,0.00002735,0.00005116,-0.00000566,0
 .00000434,0.00000533,0.00002913,-0.00001777,-0.00002168,-0.00000197,0.
 00000593,-0.00000047,0.00003373,-0.00002442,-0.00004550,0.00002120,-0.
 00002012,-0.00001196,0.00000584,-0.00000060,-0.00000057,0.00000165,-0.
 00000208,-0.00000635,-0.00002212,0.00000277,0.00001127,-0.00000081,0.0
 0000022,0.00001851,-0.00001024,-0.00000319,0.00000343,-0.00000563,-0.0
 0001350,0.00001436,-0.00000543,0.00000160,0.00000211,-0.00000083,-0.00
 001059,0.00001057,0.00000383,0.00000073,-0.00000169,0.00010978,0.00064
 119,-0.00024692,-0.00443210,-0.00045105,-0.00126080,0.00092777,0.00074
 358,0.00333649,-0.00003562,-0.00004644,0.00004902,0.00799237,-0.015983
 82,-0.00417235,0.00011591,0.00016059,-0.00004330,0.00050395,-0.0012086
 7,-0.00022344,0.00421847,-0.01072539,-0.00355666,0.00003943,0.00009133
 ,-0.00015082,0.00029544,-0.00086745,-0.00029445,0.09000288,-0.24848781
 ,-0.05778551,-0.00017753,0.00066375,-0.00032655,-0.00009772,0.00031821
 ,0.00053848,0.00024469,0.00061719,0.00024399,-0.00039351,0.00015680,0.
 00016435,-0.09729027,0.26903453,0.00001400,-0.00005161,0.00011788,0.00
 001560,0.00006973,-0.00005517,-0.00001315,0.00001988,-0.00004826,-0.00
 003695,0.00002552,0.00004461,0.00001832,0.00000112,0.00002759,0.000000
 12,-0.00000400,-0.00000036,0.00001762,-0.00000219,0.00004935,0.0000110
 8,-0.00002597,0.00000744,0.00000502,-0.00001801,-0.00000185,0.00001911
 ,-0.00000526,-0.00000036,0.00003710,-0.00000478,-0.00001150,-0.0000045
 1,0.00001063,0.00000505,0.00000116,-0.00000474,-0.00000019,0.00000051,
 -0.00000234,-0.00000226,0.00001553,-0.00002311,-0.00001024,0.00002807,
 -0.00001395,-0.00003876,-0.00000201,-0.00000477,0.00001111,0.00000337,
 0.00000581,-0.00000385,-0.00000281,0.00002144,0.00001681,0.00001345,-0
 .00001479,0.00000559,-0.00003292,0.00001637,0.00001976,-0.00000286,-0.
 00000224,-0.00000131,-0.00000067,0.00000107,-0.00000013,0.00000024,0.0
 0000511,0.00000066,0.00000693,-0.00000181,-0.00000904,-0.00000093,-0.0
 0000097,-0.00000166,0.00000556,0.00000180,-0.00000365,0.00000005,0.000
 00127,0.00000053,0.00000071,-0.00000007,0.00000028,0.,0.00000544,-0.00
 000141,-0.00000040,-0.00000030,0.00000070,-0.00009001,-0.00018211,-0.0
 0029234,-0.00286419,-0.00113768,-0.00029488,-0.00220823,0.00117152,-0.
 00455677,0.00006134,-0.00000201,0.00004449,0.00594781,-0.00969689,-0.0
 0380768,-0.00017955,0.00044792,0.00022818,0.00015665,-0.00101788,0.000
 11252,-0.01065601,0.02507127,0.00719137,-0.00017877,-0.00001917,0.0001
 3961,-0.00059813,0.00144382,0.00026749,0.02703106,-0.05955905,-0.06408
 674,0.00031640,0.00008895,-0.00005852,-0.00029605,0.00046630,0.0006273
 1,0.00025721,-0.00059449,0.00082541,0.00049647,-0.00013233,0.00100362,
 -0.02516695,0.06272280,0.06792950,-0.00001223,0.00007047,0.00005138,0.
 00001267,0.00000035,0.00002168,-0.00001444,-0.00001435,-0.00002033,-0.
 00000189,0.00000385,-0.00000606,-0.00001694,0.00000073,-0.00001431,0.0
 0000079,0.00000080,0.00000341,0.00000481,-0.00000515,0.00001806,0.0000
 0562,-0.00001328,-0.00000658,0.00000092,-0.00000209,0.00000141,-0.0000
 0593,-0.00000482,-0.00000424,0.00001561,0.00001152,-0.00000151,0.00000
 096,-0.00000927,-0.00000585,0.00000057,0.00000036,0.00000215,0.0000015
 8,0.00000076,0.00000140,0.00002557,-0.00002569,-0.00001960,-0.00000888
 ,-0.00001612,0.00000231,-0.00001613,0.00000920,0.00002415,0.00000065,0
 .00000217,0.00000364,0.00000193,0.00000259,-0.00000174,0.00000085,0.00
 000226,0.00000036,0.00000321,-0.00000992,-0.00000961,0.00000424,-0.000
 00862,-0.00000470,0.00000207,0.00000011,-0.00000041,-0.00000002,0.0000
 0017,-0.00000182,-0.00000342,0.00000051,-0.00000077,-0.00000029,-0.000
 00026,0.00000474,0.00000010,-0.00000048,0.00000012,-0.00000168,-0.0000
 0405,0.00000486,-0.00000052,0.00000060,0.00000071,-0.00000019,-0.00000
 100,0.00000235,0.00000171,-0.00000040,-0.00000013,0.00003258,-0.000039
 18,-0.00024267,0.00086391,0.00121645,0.00048416,0.00075831,-0.00035993
 ,-0.00028139,-0.00012099,0.00012693,0.00000865,-0.01812280,-0.00404633
 ,0.01632539,0.00056490,-0.00050393,-0.00032316,0.00015407,0.00018166,-
 0.00032258,0.00995932,0.00304383,-0.01173162,-0.00014948,-0.00020636,0
 .00010377,0.00006659,-0.00025384,0.00000690,-0.16572524,-0.02751114,0.
 12329275,0.00034795,0.00047358,-0.00021896,-0.00278049,-0.00361165,-0.
 00214792,0.00095271,-0.00028470,0.00036455,-0.00031356,0.00177386,-0.0
 0271269,-0.00818750,-0.00195342,0.00785460,0.18169844,-0.00000742,-0.0
 0001493,-0.00000092,0.00001280,-0.00000048,0.00000487,0.00000534,0.000
 00046,0.00000999,0.00000462,0.00000342,-0.00000061,0.00000018,-0.00000
 073,-0.00000541,0.00000566,-0.00000061,0.00000028,-0.00000904,0.000002
 78,-0.00000826,-0.00000110,0.00001171,-0.00000089,0.00000023,0.0000044
 5,-0.00000100,0.00000001,0.00000328,0.00000179,-0.00000423,0.00000629,
 -0.00000034,0.00000025,-0.00000103,0.00000023,-0.00000104,0.00000261,-
 0.00000064,-0.00000057,0.00000024,0.00000034,0.00001287,-0.00001087,-0
 .00000187,0.00000722,0.00001548,-0.00000962,-0.00000116,0.00000057,0.0
 0000005,0.00000024,0.00000325,-0.00000425,-0.00000151,0.00000130,0.000
 00149,0.00000182,-0.00000390,0.00000089,-0.00000253,0.00001248,0.00000
 146,-0.00000148,-0.00000014,0.00000010,-0.00000003,0.00000145,-0.00000
 006,-0.00000040,-0.00000079,0.00000026,0.00000126,0.00000064,-0.000000
 93,-0.00000019,0.00000021,-0.00000174,0.00000142,0.00000054,-0.0000005
 7,0.00000002,0.00000033,-0.00000053,0.00000050,0.00000007,0.,0.,0.0000
 0051,-0.00000073,0.00000016,-0.00000033,0.00000023,0.00006277,-0.00013
 140,-0.00005612,-0.00046118,0.00079762,0.00117541,-0.00104799,0.000416
 57,0.00058455,0.00011746,0.00011105,-0.00014622,-0.01370845,-0.0039512
 4,0.01358022,0.00009357,-0.00036618,-0.00042345,0.00016926,0.00028875,
 -0.00020256,-0.00893255,-0.00289103,0.00949961,0.00033197,-0.00016811,
 -0.00001708,0.00012320,0.00020067,-0.00018008,-0.02603718,-0.05601059,
 0.02726893,0.00058552,0.00064728,-0.00024225,-0.00294694,-0.00169298,-
 0.00134747,0.00027133,0.00048744,-0.00051533,0.00105544,-0.00030090,0.
 00219764,0.01833667,0.00529126,-0.01907525,0.03196320,0.05723351,0.000
 09091,-0.00006889,0.00002528,-0.00002153,0.00003063,-0.00002949,0.0000
 1669,0.00001075,-0.00000118,-0.00000062,0.00000118,0.00000680,0.000022
 43,0.00000219,0.00002394,-0.00000621,0.00000143,-0.00000103,-0.0000014
 7,-0.00000041,-0.00000879,-0.00000385,0.00000647,0.00000833,-0.0000019
 5,0.00000242,-0.00000144,0.00000740,0.00000575,0.00000533,-0.00001536,
 -0.00000786,0.00000088,-0.00000312,0.00001279,0.00000720,-0.00000027,-
 0.00000131,-0.00000249,-0.00000234,-0.00000119,-0.00000141,-0.00003159
 ,0.00003815,0.00000948,0.00000304,-0.00004063,0.00000565,0.00001881,-0
 .00001013,-0.00001435,0.00000026,-0.00000510,0.00000135,-0.00001088,0.
 00000724,0.00000633,-0.00000330,0.00000810,-0.00000097,-0.00000515,-0.
 00001106,0.00001733,-0.00000707,0.00000711,0.00000320,-0.00000270,-0.0
 0000031,-0.00000011,0.00000032,0.00000375,0.00000231,0.00000744,-0.000
 00308,-0.00000395,0.00000133,-0.00000045,-0.00000269,0.00000112,-0.000
 00066,-0.00000062,0.00000186,0.00000515,-0.00000400,0.00000126,-0.0000
 0088,-0.00000041,0.00000061,0.00000417,-0.00000300,-0.00000191,0.00000
 055,0.00000039,-0.00025953,0.00001752,0.00001421,-0.00026393,0.0003187
 8,0.00050896,0.00085760,-0.00110894,0.00085754,0.00001669,-0.00014204,
 -0.00008494,-0.00966897,-0.00264414,0.00876684,0.00008158,0.00025133,-
 0.00011384,-0.00004883,0.00022924,0.00005612,0.01751546,0.00432118,-0.
 02062410,-0.00036190,0.00046515,0.00057115,-0.00032751,-0.00020825,0.0
 0019943,0.12296956,0.02880396,-0.17229195,0.00024451,0.00040137,0.0009
 3371,-0.00203191,-0.00202856,0.00011459,-0.00018347,-0.00051858,0.0005
 0254,-0.00279830,0.00291265,-0.00372326,0.00470962,0.00101760,-0.00538
 992,-0.13050485,-0.03208417,0.18965506\\0.00002209,0.00001154,0.000033
 93,0.00001948,-0.00002997,-0.00000034,-0.00000036,0.00000399,0.0000018
 0,0.00000401,-0.00000624,-0.00000556,0.00000824,0.00000822,-0.00000662
 ,0.00000528,-0.00000182,0.00000121,-0.00000206,-0.00000127,-0.00000231
 ,0.00000769,-0.00000492,0.00000234,0.00000327,-0.00000257,-0.00000151,
 0.00000662,-0.00000507,-0.00000026,0.00000455,-0.00000305,-0.00000234,
 0.00000644,-0.00000251,0.00000476,0.00000167,0.00000128,0.00000731,0.0
 0000553,0.00000028,0.00000162,-0.00001218,0.00000886,-0.00001238,-0.00
 000065,-0.00000393,0.00000159,0.00000355,-0.00001230,0.00000388,0.0000
 0175,0.00000946,0.00000270,-0.00000319,0.00000263,0.00000317,-0.000002
 85,0.00000588,0.00000261,-0.00000484,0.00000662,-0.00000200,0.00000152
 ,0.00000175,0.00000489,0.00000116,-0.00000020,0.00000145,0.00000081,0.
 00000189,0.00001443,-0.00000455,0.00000493,0.00000086,-0.00000691,0.00
 000455,0.00000091,-0.00000404,0.00000374,-0.00000079,0.00000124,0.0000
 0276,0.00000524,-0.00000015,-0.00000048,-0.00000069,-0.00000303,0.0000
 0414,0.00000222,-0.00000298,0.00000640,0.00000372,-0.00001610,-0.00000
 377,-0.00001318,0.00000138,-0.00000187,-0.00000033,-0.00000297,0.00000
 228,-0.00000329,-0.00000172,0.00000055,-0.00000206,-0.00000241,-0.0000
 0241,-0.00000610,0.00000190,0.00000091,0.00000317,0.00000412,-0.000010
 37,-0.00001056,-0.00000492,0.00000187,-0.00000261,-0.00000236,0.000001
 24,0.00000053,-0.00000115,0.00000109,0.00000258,-0.00000487,0.00000071
 ,-0.00000472,-0.00000206,-0.00000489,-0.00000641,-0.00000321,-0.000002
 62,-0.00000663,-0.00000699,0.00000234,-0.00000173,-0.00000626,0.000002
 00,-0.00000410,-0.00000575,-0.00000111,-0.00000669,-0.00000374,-0.0000
 0051,-0.00000369\\\@


 When cryptography is outlawed, bayl bhgynjf jvyy unir cevinpl.
 Job cpu time:       0 days  2 hours 59 minutes 17.0 seconds.
 File lengths (MBytes):  RWF=    815 Int=      0 D2E=      0 Chk=     34 Scr=      1
 Normal termination of Gaussian 09 at Tue May 14 21:48:31 2019.
51384.53user 39.34system 14:18:44elapsed 99%CPU (0avgtext+0avgdata 430700maxresident)k
101053114inputs+28956309outputs (37major+1098043minor)pagefaults 0swaps
