 Entering Gaussian System, Link 0=g09
 Initial command:
 /opt/gaussian/09.D.01/g09/l1.exe "/scratch/rmarti96/23425814/Gau-858.inp" -scrdir="/scratch/rmarti96/23425814/"
 Entering Link 1 = /opt/gaussian/09.D.01/g09/l1.exe PID=       918.
  
 Copyright (c) 1988,1990,1992,1993,1995,1998,2003,2009,2013,
            Gaussian, Inc.  All Rights Reserved.
  
 This is part of the Gaussian(R) 09 program.  It is based on
 the Gaussian(R) 03 system (copyright 2003, Gaussian, Inc.),
 the Gaussian(R) 98 system (copyright 1998, Gaussian, Inc.),
 the Gaussian(R) 94 system (copyright 1995, Gaussian, Inc.),
 the Gaussian 92(TM) system (copyright 1992, Gaussian, Inc.),
 the Gaussian 90(TM) system (copyright 1990, Gaussian, Inc.),
 the Gaussian 88(TM) system (copyright 1988, Gaussian, Inc.),
 the Gaussian 86(TM) system (copyright 1986, Carnegie Mellon
 University), and the Gaussian 82(TM) system (copyright 1983,
 Carnegie Mellon University). Gaussian is a federally registered
 trademark of Gaussian, Inc.
  
 This software contains proprietary and confidential information,
 including trade secrets, belonging to Gaussian, Inc.
  
 This software is provided under written license and may be
 used, copied, transmitted, or stored only in accord with that
 written license.
  
 The following legend is applicable only to US Government
 contracts under FAR:
  
                    RESTRICTED RIGHTS LEGEND
  
 Use, reproduction and disclosure by the US Government is
 subject to restrictions as set forth in subparagraphs (a)
 and (c) of the Commercial Computer Software - Restricted
 Rights clause in FAR 52.227-19.
  
 Gaussian, Inc.
 340 Quinnipiac St., Bldg. 40, Wallingford CT 06492
  
  
 ---------------------------------------------------------------
 Warning -- This program may not be used in any manner that
 competes with the business of Gaussian, Inc. or will provide
 assistance to any competitor of Gaussian, Inc.  The licensee
 of this program is prohibited from giving any competitor of
 Gaussian, Inc. access to this program.  By using this program,
 the user acknowledges that Gaussian, Inc. is engaged in the
 business of creating and licensing software in the field of
 computational chemistry and represents and warrants to the
 licensee that it is not a competitor of Gaussian, Inc. and that
 it will not use this program in any manner prohibited above.
 ---------------------------------------------------------------
  

 Cite this work as:
 Gaussian 09, Revision D.01,
 M. J. Frisch, G. W. Trucks, H. B. Schlegel, G. E. Scuseria, 
 M. A. Robb, J. R. Cheeseman, G. Scalmani, V. Barone, B. Mennucci, 
 G. A. Petersson, H. Nakatsuji, M. Caricato, X. Li, H. P. Hratchian, 
 A. F. Izmaylov, J. Bloino, G. Zheng, J. L. Sonnenberg, M. Hada, 
 M. Ehara, K. Toyota, R. Fukuda, J. Hasegawa, M. Ishida, T. Nakajima, 
 Y. Honda, O. Kitao, H. Nakai, T. Vreven, J. A. Montgomery, Jr., 
 J. E. Peralta, F. Ogliaro, M. Bearpark, J. J. Heyd, E. Brothers, 
 K. N. Kudin, V. N. Staroverov, T. Keith, R. Kobayashi, J. Normand, 
 K. Raghavachari, A. Rendell, J. C. Burant, S. S. Iyengar, J. Tomasi, 
 M. Cossi, N. Rega, J. M. Millam, M. Klene, J. E. Knox, J. B. Cross, 
 V. Bakken, C. Adamo, J. Jaramillo, R. Gomperts, R. E. Stratmann, 
 O. Yazyev, A. J. Austin, R. Cammi, C. Pomelli, J. W. Ochterski, 
 R. L. Martin, K. Morokuma, V. G. Zakrzewski, G. A. Voth, 
 P. Salvador, J. J. Dannenberg, S. Dapprich, A. D. Daniels, 
 O. Farkas, J. B. Foresman, J. V. Ortiz, J. Cioslowski, 
 and D. J. Fox, Gaussian, Inc., Wallingford CT, 2013.
 
 ******************************************
 Gaussian 09:  ES64L-G09RevD.01 24-Apr-2013
                14-May-2019 
 ******************************************
 %chk=Tri-alkyl-L4.chk
 ----------------------------------------------------------------------
 # opt=(calcfc,noeigen) freq=noraman b3lyp scrf=(cpcm,solvent=dichloroe
 thane) nosymm def2svp empiricaldispersion=gd3
 ----------------------------------------------------------------------
 1/10=4,11=1,14=-1,18=20,19=15,26=3,38=1/1,3;
 2/9=110,12=2,15=1,17=6,18=5,40=1/2;
 3/5=43,7=101,11=2,16=1,25=1,30=1,70=2101,71=2,72=10,74=-5,124=31,140=1/1,2,3;
 4//1;
 5/5=2,38=5,53=10/2;
 8/6=4,10=90,11=11/1;
 11/6=1,8=1,9=11,15=111,16=1,31=1/1,2,10;
 10/6=1,13=1,31=1/2;
 6/7=2,8=2,9=2,10=2,28=1/1;
 7/10=1,18=20,25=1,30=1/1,2,3,16;
 1/10=4,11=1,14=-1,18=20,19=15,26=3/3(2);
 2/9=110,15=1/2;
 99//99;
 2/9=110,15=1/2;
 3/5=43,7=101,11=2,16=1,25=1,30=1,70=2105,71=1,72=10,74=-5,124=31/1,2,3;
 4/5=5,16=3,69=1/1;
 5/5=2,38=5,53=10/2;
 7/30=1/1,2,3,16;
 1/11=1,14=-1,18=20,19=15,26=3/3(-5);
 2/9=110,15=1/2;
 6/7=2,8=2,9=2,10=2,19=2,28=1/1;
 99/9=1/99;
 ------------
 Tri-alkyl-L4
 ------------
 Symbolic Z-matrix:
 Charge =  0 Multiplicity = 1
 P                     0.16129  -1.49642   0. 
 C                     0.76797  -0.63847   1.48602 
 C                     0.25114  -1.37412   2.70426 
 C                     2.28168  -0.65106   1.45799 
 C                     0.24648   0.78271   1.46083 
 H                    -0.86526  -1.38409   2.70751 
 H                     0.61678  -2.42899   2.70531 
 H                     0.60276  -0.87736   3.64047 
 H                     2.65783  -0.13011   0.54498 
 H                     2.69454  -0.13196   2.35634 
 H                     2.66159  -1.70086   1.45092 
 H                     0.59735   1.34483   2.35965 
 H                     0.60928   1.31362   0.54817 
 H                    -0.86996   0.78689   1.45519 
 C                     0.77065  -3.21137  -0.00166 
 C                     2.24244  -3.19282  -0.35649 
 C                     0.56292  -3.79143   1.38132 
 C                    -0.01583  -3.99449  -1.03147 
 H                     2.39299  -2.74124  -1.36638 
 H                     2.81481  -2.59271   0.39097 
 H                     2.65588  -4.23005  -0.36806 
 H                    -0.52089  -3.77933   1.64907 
 H                     0.92517  -4.84691   1.422 
 H                     1.124    -3.19587   2.14091 
 H                     0.32948  -5.05594  -1.06409 
 H                    -1.1035   -3.98433  -0.77981 
 H                     0.11931  -3.54774  -2.04568 
 C                     0.76525  -0.63655  -1.48602 
 C                     0.34347  -1.40299  -2.72313 
 C                     0.22677   0.77983  -1.50749 
 H                     1.88509  -0.60888  -1.42807 
 C                     0.75445  -0.67793  -3.98841 
 H                    -0.77014  -1.53787  -2.71604 
 H                     0.80646  -2.42379  -2.70831 
 C                     0.63846   1.50513  -2.77242 
 H                    -0.89265   0.75416  -1.43971 
 H                     0.60584   1.33954  -0.61335 
 C                     0.21822   0.73881  -4.00999 
 H                     0.37392  -1.23717  -4.88224 
 H                     1.87385  -0.65389  -4.05731 
 H                     0.17511   2.52574  -2.7875 
 H                     1.75206   1.64051  -2.7784 
 H                     0.59254   1.26805  -4.92454 
 H                    -0.90162   0.7127   -4.07018 
 

 GradGradGradGradGradGradGradGradGradGradGradGradGradGradGradGradGradGrad
 Berny optimization.
 Initialization pass.
                           ----------------------------
                           !    Initial Parameters    !
                           ! (Angstroms and Degrees)  !
 --------------------------                            --------------------------
 ! Name  Definition              Value          Derivative Info.                !
 --------------------------------------------------------------------------------
 ! R1    R(1,2)                  1.82           calculate D2E/DX2 analytically  !
 ! R2    R(1,15)                 1.82           calculate D2E/DX2 analytically  !
 ! R3    R(1,28)                 1.82           calculate D2E/DX2 analytically  !
 ! R4    R(2,3)                  1.5141         calculate D2E/DX2 analytically  !
 ! R5    R(2,4)                  1.514          calculate D2E/DX2 analytically  !
 ! R6    R(2,5)                  1.514          calculate D2E/DX2 analytically  !
 ! R7    R(3,6)                  1.1164         calculate D2E/DX2 analytically  !
 ! R8    R(3,7)                  1.1164         calculate D2E/DX2 analytically  !
 ! R9    R(3,8)                  1.1166         calculate D2E/DX2 analytically  !
 ! R10   R(4,9)                  1.1165         calculate D2E/DX2 analytically  !
 ! R11   R(4,10)                 1.1167         calculate D2E/DX2 analytically  !
 ! R12   R(4,11)                 1.1165         calculate D2E/DX2 analytically  !
 ! R13   R(5,12)                 1.1167         calculate D2E/DX2 analytically  !
 ! R14   R(5,13)                 1.1164         calculate D2E/DX2 analytically  !
 ! R15   R(5,14)                 1.1165         calculate D2E/DX2 analytically  !
 ! R16   R(15,16)                1.5141         calculate D2E/DX2 analytically  !
 ! R17   R(15,17)                1.514          calculate D2E/DX2 analytically  !
 ! R18   R(15,18)                1.514          calculate D2E/DX2 analytically  !
 ! R19   R(16,19)                1.1164         calculate D2E/DX2 analytically  !
 ! R20   R(16,20)                1.1164         calculate D2E/DX2 analytically  !
 ! R21   R(16,21)                1.1166         calculate D2E/DX2 analytically  !
 ! R22   R(17,22)                1.1165         calculate D2E/DX2 analytically  !
 ! R23   R(17,23)                1.1167         calculate D2E/DX2 analytically  !
 ! R24   R(17,24)                1.1165         calculate D2E/DX2 analytically  !
 ! R25   R(18,25)                1.1167         calculate D2E/DX2 analytically  !
 ! R26   R(18,26)                1.1164         calculate D2E/DX2 analytically  !
 ! R27   R(18,27)                1.1165         calculate D2E/DX2 analytically  !
 ! R28   R(28,29)                1.5152         calculate D2E/DX2 analytically  !
 ! R29   R(28,30)                1.5154         calculate D2E/DX2 analytically  !
 ! R30   R(28,31)                1.1217         calculate D2E/DX2 analytically  !
 ! R31   R(29,32)                1.5151         calculate D2E/DX2 analytically  !
 ! R32   R(29,33)                1.1218         calculate D2E/DX2 analytically  !
 ! R33   R(29,34)                1.121          calculate D2E/DX2 analytically  !
 ! R34   R(30,35)                1.5151         calculate D2E/DX2 analytically  !
 ! R35   R(30,36)                1.1218         calculate D2E/DX2 analytically  !
 ! R36   R(30,37)                1.1209         calculate D2E/DX2 analytically  !
 ! R37   R(32,38)                1.515          calculate D2E/DX2 analytically  !
 ! R38   R(32,39)                1.1209         calculate D2E/DX2 analytically  !
 ! R39   R(32,40)                1.1218         calculate D2E/DX2 analytically  !
 ! R40   R(35,38)                1.5151         calculate D2E/DX2 analytically  !
 ! R41   R(35,41)                1.121          calculate D2E/DX2 analytically  !
 ! R42   R(35,42)                1.1218         calculate D2E/DX2 analytically  !
 ! R43   R(38,43)                1.121          calculate D2E/DX2 analytically  !
 ! R44   R(38,44)                1.1218         calculate D2E/DX2 analytically  !
 ! A1    A(2,1,15)             109.4712         calculate D2E/DX2 analytically  !
 ! A2    A(2,1,28)             109.4713         calculate D2E/DX2 analytically  !
 ! A3    A(15,1,28)            109.4712         calculate D2E/DX2 analytically  !
 ! A4    A(1,2,3)              108.3085         calculate D2E/DX2 analytically  !
 ! A5    A(1,2,4)              108.3146         calculate D2E/DX2 analytically  !
 ! A6    A(1,2,5)              108.3057         calculate D2E/DX2 analytically  !
 ! A7    A(3,2,4)              110.6182         calculate D2E/DX2 analytically  !
 ! A8    A(3,2,5)              110.6028         calculate D2E/DX2 analytically  !
 ! A9    A(4,2,5)              110.6013         calculate D2E/DX2 analytically  !
 ! A10   A(2,3,6)              110.3664         calculate D2E/DX2 analytically  !
 ! A11   A(2,3,7)              110.3674         calculate D2E/DX2 analytically  !
 ! A12   A(2,3,8)              110.5459         calculate D2E/DX2 analytically  !
 ! A13   A(6,3,7)              108.6055         calculate D2E/DX2 analytically  !
 ! A14   A(6,3,8)              108.446          calculate D2E/DX2 analytically  !
 ! A15   A(7,3,8)              108.4462         calculate D2E/DX2 analytically  !
 ! A16   A(2,4,9)              110.3714         calculate D2E/DX2 analytically  !
 ! A17   A(2,4,10)             110.5421         calculate D2E/DX2 analytically  !
 ! A18   A(2,4,11)             110.3742         calculate D2E/DX2 analytically  !
 ! A19   A(9,4,10)             108.4467         calculate D2E/DX2 analytically  !
 ! A20   A(9,4,11)             108.5976         calculate D2E/DX2 analytically  !
 ! A21   A(10,4,11)            108.4451         calculate D2E/DX2 analytically  !
 ! A22   A(2,5,12)             110.5421         calculate D2E/DX2 analytically  !
 ! A23   A(2,5,13)             110.3677         calculate D2E/DX2 analytically  !
 ! A24   A(2,5,14)             110.3667         calculate D2E/DX2 analytically  !
 ! A25   A(12,5,13)            108.4512         calculate D2E/DX2 analytically  !
 ! A26   A(12,5,14)            108.4449         calculate D2E/DX2 analytically  !
 ! A27   A(13,5,14)            108.6049         calculate D2E/DX2 analytically  !
 ! A28   A(1,15,16)            108.3085         calculate D2E/DX2 analytically  !
 ! A29   A(1,15,17)            108.3146         calculate D2E/DX2 analytically  !
 ! A30   A(1,15,18)            108.3057         calculate D2E/DX2 analytically  !
 ! A31   A(16,15,17)           110.6182         calculate D2E/DX2 analytically  !
 ! A32   A(16,15,18)           110.6028         calculate D2E/DX2 analytically  !
 ! A33   A(17,15,18)           110.6013         calculate D2E/DX2 analytically  !
 ! A34   A(15,16,19)           110.3664         calculate D2E/DX2 analytically  !
 ! A35   A(15,16,20)           110.3674         calculate D2E/DX2 analytically  !
 ! A36   A(15,16,21)           110.5459         calculate D2E/DX2 analytically  !
 ! A37   A(19,16,20)           108.6055         calculate D2E/DX2 analytically  !
 ! A38   A(19,16,21)           108.446          calculate D2E/DX2 analytically  !
 ! A39   A(20,16,21)           108.4462         calculate D2E/DX2 analytically  !
 ! A40   A(15,17,22)           110.3714         calculate D2E/DX2 analytically  !
 ! A41   A(15,17,23)           110.5421         calculate D2E/DX2 analytically  !
 ! A42   A(15,17,24)           110.3742         calculate D2E/DX2 analytically  !
 ! A43   A(22,17,23)           108.4467         calculate D2E/DX2 analytically  !
 ! A44   A(22,17,24)           108.5976         calculate D2E/DX2 analytically  !
 ! A45   A(23,17,24)           108.4451         calculate D2E/DX2 analytically  !
 ! A46   A(15,18,25)           110.5421         calculate D2E/DX2 analytically  !
 ! A47   A(15,18,26)           110.3677         calculate D2E/DX2 analytically  !
 ! A48   A(15,18,27)           110.3667         calculate D2E/DX2 analytically  !
 ! A49   A(25,18,26)           108.4512         calculate D2E/DX2 analytically  !
 ! A50   A(25,18,27)           108.4449         calculate D2E/DX2 analytically  !
 ! A51   A(26,18,27)           108.6049         calculate D2E/DX2 analytically  !
 ! A52   A(1,28,29)            109.59           calculate D2E/DX2 analytically  !
 ! A53   A(1,28,30)            109.586          calculate D2E/DX2 analytically  !
 ! A54   A(1,28,31)            107.5042         calculate D2E/DX2 analytically  !
 ! A55   A(29,28,30)           111.2413         calculate D2E/DX2 analytically  !
 ! A56   A(29,28,31)           109.4252         calculate D2E/DX2 analytically  !
 ! A57   A(30,28,31)           109.4158         calculate D2E/DX2 analytically  !
 ! A58   A(28,29,32)           111.3625         calculate D2E/DX2 analytically  !
 ! A59   A(28,29,33)           109.3908         calculate D2E/DX2 analytically  !
 ! A60   A(28,29,34)           109.5638         calculate D2E/DX2 analytically  !
 ! A61   A(32,29,33)           109.3968         calculate D2E/DX2 analytically  !
 ! A62   A(32,29,34)           109.5595         calculate D2E/DX2 analytically  !
 ! A63   A(33,29,34)           107.4839         calculate D2E/DX2 analytically  !
 ! A64   A(28,30,35)           111.2657         calculate D2E/DX2 analytically  !
 ! A65   A(28,30,36)           109.4111         calculate D2E/DX2 analytically  !
 ! A66   A(28,30,37)           109.5868         calculate D2E/DX2 analytically  !
 ! A67   A(35,30,36)           109.4233         calculate D2E/DX2 analytically  !
 ! A68   A(35,30,37)           109.5746         calculate D2E/DX2 analytically  !
 ! A69   A(36,30,37)           107.5            calculate D2E/DX2 analytically  !
 ! A70   A(29,32,38)           111.3094         calculate D2E/DX2 analytically  !
 ! A71   A(29,32,39)           109.5772         calculate D2E/DX2 analytically  !
 ! A72   A(29,32,40)           109.4042         calculate D2E/DX2 analytically  !
 ! A73   A(38,32,39)           109.5749         calculate D2E/DX2 analytically  !
 ! A74   A(38,32,40)           109.4074         calculate D2E/DX2 analytically  !
 ! A75   A(39,32,40)           107.4863         calculate D2E/DX2 analytically  !
 ! A76   A(30,35,38)           111.3744         calculate D2E/DX2 analytically  !
 ! A77   A(30,35,41)           109.5589         calculate D2E/DX2 analytically  !
 ! A78   A(30,35,42)           109.3871         calculate D2E/DX2 analytically  !
 ! A79   A(38,35,41)           109.5649         calculate D2E/DX2 analytically  !
 ! A80   A(38,35,42)           109.3914         calculate D2E/DX2 analytically  !
 ! A81   A(41,35,42)           107.4801         calculate D2E/DX2 analytically  !
 ! A82   A(32,38,35)           111.2962         calculate D2E/DX2 analytically  !
 ! A83   A(32,38,43)           109.5686         calculate D2E/DX2 analytically  !
 ! A84   A(32,38,44)           109.4108         calculate D2E/DX2 analytically  !
 ! A85   A(35,38,43)           109.5728         calculate D2E/DX2 analytically  !
 ! A86   A(35,38,44)           109.42           calculate D2E/DX2 analytically  !
 ! A87   A(43,38,44)           107.4917         calculate D2E/DX2 analytically  !
 ! D1    D(15,1,2,3)           -60.0015         calculate D2E/DX2 analytically  !
 ! D2    D(15,1,2,4)            60.0136         calculate D2E/DX2 analytically  !
 ! D3    D(15,1,2,5)          -179.9932         calculate D2E/DX2 analytically  !
 ! D4    D(28,1,2,3)           179.9985         calculate D2E/DX2 analytically  !
 ! D5    D(28,1,2,4)           -59.9864         calculate D2E/DX2 analytically  !
 ! D6    D(28,1,2,5)            60.0069         calculate D2E/DX2 analytically  !
 ! D7    D(2,1,15,16)          -74.2363         calculate D2E/DX2 analytically  !
 ! D8    D(2,1,15,17)           45.7788         calculate D2E/DX2 analytically  !
 ! D9    D(2,1,15,18)          165.772          calculate D2E/DX2 analytically  !
 ! D10   D(28,1,15,16)          45.7637         calculate D2E/DX2 analytically  !
 ! D11   D(28,1,15,17)         165.7788         calculate D2E/DX2 analytically  !
 ! D12   D(28,1,15,18)         -74.2279         calculate D2E/DX2 analytically  !
 ! D13   D(2,1,28,29)          176.0579         calculate D2E/DX2 analytically  !
 ! D14   D(2,1,28,30)          -61.6117         calculate D2E/DX2 analytically  !
 ! D15   D(2,1,28,31)           57.2163         calculate D2E/DX2 analytically  !
 ! D16   D(15,1,28,29)          56.0579         calculate D2E/DX2 analytically  !
 ! D17   D(15,1,28,30)         178.3883         calculate D2E/DX2 analytically  !
 ! D18   D(15,1,28,31)         -62.7836         calculate D2E/DX2 analytically  !
 ! D19   D(1,2,3,6)            -60.0395         calculate D2E/DX2 analytically  !
 ! D20   D(1,2,3,7)             60.0161         calculate D2E/DX2 analytically  !
 ! D21   D(1,2,3,8)            179.9887         calculate D2E/DX2 analytically  !
 ! D22   D(4,2,3,6)           -178.603          calculate D2E/DX2 analytically  !
 ! D23   D(4,2,3,7)            -58.5474         calculate D2E/DX2 analytically  !
 ! D24   D(4,2,3,8)             61.4253         calculate D2E/DX2 analytically  !
 ! D25   D(5,2,3,6)             58.5042         calculate D2E/DX2 analytically  !
 ! D26   D(5,2,3,7)            178.5598         calculate D2E/DX2 analytically  !
 ! D27   D(5,2,3,8)            -61.4675         calculate D2E/DX2 analytically  !
 ! D28   D(1,2,4,9)             60.0107         calculate D2E/DX2 analytically  !
 ! D29   D(1,2,4,10)           179.9842         calculate D2E/DX2 analytically  !
 ! D30   D(1,2,4,11)           -60.0426         calculate D2E/DX2 analytically  !
 ! D31   D(3,2,4,9)            178.5705         calculate D2E/DX2 analytically  !
 ! D32   D(3,2,4,10)           -61.456          calculate D2E/DX2 analytically  !
 ! D33   D(3,2,4,11)            58.5172         calculate D2E/DX2 analytically  !
 ! D34   D(5,2,4,9)            -58.5358         calculate D2E/DX2 analytically  !
 ! D35   D(5,2,4,10)            61.4376         calculate D2E/DX2 analytically  !
 ! D36   D(5,2,4,11)          -178.5891         calculate D2E/DX2 analytically  !
 ! D37   D(1,2,5,12)           179.9689         calculate D2E/DX2 analytically  !
 ! D38   D(1,2,5,13)           -60.0544         calculate D2E/DX2 analytically  !
 ! D39   D(1,2,5,14)            60.0009         calculate D2E/DX2 analytically  !
 ! D40   D(3,2,5,12)            61.4235         calculate D2E/DX2 analytically  !
 ! D41   D(3,2,5,13)          -178.5999         calculate D2E/DX2 analytically  !
 ! D42   D(3,2,5,14)           -58.5446         calculate D2E/DX2 analytically  !
 ! D43   D(4,2,5,12)           -61.4791         calculate D2E/DX2 analytically  !
 ! D44   D(4,2,5,13)            58.4975         calculate D2E/DX2 analytically  !
 ! D45   D(4,2,5,14)           178.5528         calculate D2E/DX2 analytically  !
 ! D46   D(1,15,16,19)         -60.0395         calculate D2E/DX2 analytically  !
 ! D47   D(1,15,16,20)          60.0161         calculate D2E/DX2 analytically  !
 ! D48   D(1,15,16,21)         179.9887         calculate D2E/DX2 analytically  !
 ! D49   D(17,15,16,19)       -178.603          calculate D2E/DX2 analytically  !
 ! D50   D(17,15,16,20)        -58.5474         calculate D2E/DX2 analytically  !
 ! D51   D(17,15,16,21)         61.4253         calculate D2E/DX2 analytically  !
 ! D52   D(18,15,16,19)         58.5042         calculate D2E/DX2 analytically  !
 ! D53   D(18,15,16,20)        178.5598         calculate D2E/DX2 analytically  !
 ! D54   D(18,15,16,21)        -61.4675         calculate D2E/DX2 analytically  !
 ! D55   D(1,15,17,22)          60.0107         calculate D2E/DX2 analytically  !
 ! D56   D(1,15,17,23)         179.9842         calculate D2E/DX2 analytically  !
 ! D57   D(1,15,17,24)         -60.0426         calculate D2E/DX2 analytically  !
 ! D58   D(16,15,17,22)        178.5705         calculate D2E/DX2 analytically  !
 ! D59   D(16,15,17,23)        -61.456          calculate D2E/DX2 analytically  !
 ! D60   D(16,15,17,24)         58.5172         calculate D2E/DX2 analytically  !
 ! D61   D(18,15,17,22)        -58.5358         calculate D2E/DX2 analytically  !
 ! D62   D(18,15,17,23)         61.4376         calculate D2E/DX2 analytically  !
 ! D63   D(18,15,17,24)       -178.5891         calculate D2E/DX2 analytically  !
 ! D64   D(1,15,18,25)         179.9689         calculate D2E/DX2 analytically  !
 ! D65   D(1,15,18,26)         -60.0544         calculate D2E/DX2 analytically  !
 ! D66   D(1,15,18,27)          60.0009         calculate D2E/DX2 analytically  !
 ! D67   D(16,15,18,25)         61.4235         calculate D2E/DX2 analytically  !
 ! D68   D(16,15,18,26)       -178.5999         calculate D2E/DX2 analytically  !
 ! D69   D(16,15,18,27)        -58.5446         calculate D2E/DX2 analytically  !
 ! D70   D(17,15,18,25)        -61.4791         calculate D2E/DX2 analytically  !
 ! D71   D(17,15,18,26)         58.4975         calculate D2E/DX2 analytically  !
 ! D72   D(17,15,18,27)        178.5528         calculate D2E/DX2 analytically  !
 ! D73   D(1,28,29,32)         176.5953         calculate D2E/DX2 analytically  !
 ! D74   D(1,28,29,33)          55.5492         calculate D2E/DX2 analytically  !
 ! D75   D(1,28,29,34)         -62.0382         calculate D2E/DX2 analytically  !
 ! D76   D(30,28,29,32)         55.2571         calculate D2E/DX2 analytically  !
 ! D77   D(30,28,29,33)        -65.7889         calculate D2E/DX2 analytically  !
 ! D78   D(30,28,29,34)        176.6237         calculate D2E/DX2 analytically  !
 ! D79   D(31,28,29,32)        -65.7573         calculate D2E/DX2 analytically  !
 ! D80   D(31,28,29,33)        173.1966         calculate D2E/DX2 analytically  !
 ! D81   D(31,28,29,34)         55.6092         calculate D2E/DX2 analytically  !
 ! D82   D(1,28,30,35)        -176.5771         calculate D2E/DX2 analytically  !
 ! D83   D(1,28,30,36)         -55.5468         calculate D2E/DX2 analytically  !
 ! D84   D(1,28,30,37)          62.0853         calculate D2E/DX2 analytically  !
 ! D85   D(29,28,30,35)        -55.2366         calculate D2E/DX2 analytically  !
 ! D86   D(29,28,30,36)         65.7936         calculate D2E/DX2 analytically  !
 ! D87   D(29,28,30,37)       -176.5742         calculate D2E/DX2 analytically  !
 ! D88   D(31,28,30,35)         65.7833         calculate D2E/DX2 analytically  !
 ! D89   D(31,28,30,36)       -173.1864         calculate D2E/DX2 analytically  !
 ! D90   D(31,28,30,37)        -55.5543         calculate D2E/DX2 analytically  !
 ! D91   D(28,29,32,38)        -55.1928         calculate D2E/DX2 analytically  !
 ! D92   D(28,29,32,39)       -176.5529         calculate D2E/DX2 analytically  !
 ! D93   D(28,29,32,40)         65.8411         calculate D2E/DX2 analytically  !
 ! D94   D(33,29,32,38)         65.8497         calculate D2E/DX2 analytically  !
 ! D95   D(33,29,32,39)        -55.5104         calculate D2E/DX2 analytically  !
 ! D96   D(33,29,32,40)       -173.1163         calculate D2E/DX2 analytically  !
 ! D97   D(34,29,32,38)       -176.5618         calculate D2E/DX2 analytically  !
 ! D98   D(34,29,32,39)         62.0781         calculate D2E/DX2 analytically  !
 ! D99   D(34,29,32,40)        -55.5279         calculate D2E/DX2 analytically  !
 ! D100  D(28,30,35,38)         55.2381         calculate D2E/DX2 analytically  !
 ! D101  D(28,30,35,41)        176.6158         calculate D2E/DX2 analytically  !
 ! D102  D(28,30,35,42)        -65.8064         calculate D2E/DX2 analytically  !
 ! D103  D(36,30,35,38)        -65.785          calculate D2E/DX2 analytically  !
 ! D104  D(36,30,35,41)         55.5927         calculate D2E/DX2 analytically  !
 ! D105  D(36,30,35,42)        173.1705         calculate D2E/DX2 analytically  !
 ! D106  D(37,30,35,38)        176.5828         calculate D2E/DX2 analytically  !
 ! D107  D(37,30,35,41)        -62.0395         calculate D2E/DX2 analytically  !
 ! D108  D(37,30,35,42)         55.5383         calculate D2E/DX2 analytically  !
 ! D109  D(29,32,38,35)         55.0823         calculate D2E/DX2 analytically  !
 ! D110  D(29,32,38,43)        176.4253         calculate D2E/DX2 analytically  !
 ! D111  D(29,32,38,44)        -65.9633         calculate D2E/DX2 analytically  !
 ! D112  D(39,32,38,35)        176.4437         calculate D2E/DX2 analytically  !
 ! D113  D(39,32,38,43)        -62.2133         calculate D2E/DX2 analytically  !
 ! D114  D(39,32,38,44)         55.3981         calculate D2E/DX2 analytically  !
 ! D115  D(40,32,38,35)        -65.9498         calculate D2E/DX2 analytically  !
 ! D116  D(40,32,38,43)         55.3933         calculate D2E/DX2 analytically  !
 ! D117  D(40,32,38,44)        173.0046         calculate D2E/DX2 analytically  !
 ! D118  D(30,35,38,32)        -55.1527         calculate D2E/DX2 analytically  !
 ! D119  D(30,35,38,43)       -176.4932         calculate D2E/DX2 analytically  !
 ! D120  D(30,35,38,44)         65.8876         calculate D2E/DX2 analytically  !
 ! D121  D(41,35,38,32)       -176.5268         calculate D2E/DX2 analytically  !
 ! D122  D(41,35,38,43)         62.1326         calculate D2E/DX2 analytically  !
 ! D123  D(41,35,38,44)        -55.4866         calculate D2E/DX2 analytically  !
 ! D124  D(42,35,38,32)         65.8893         calculate D2E/DX2 analytically  !
 ! D125  D(42,35,38,43)        -55.4512         calculate D2E/DX2 analytically  !
 ! D126  D(42,35,38,44)       -173.0704         calculate D2E/DX2 analytically  !
 --------------------------------------------------------------------------------
 Trust Radius=3.00D-01 FncErr=1.00D-07 GrdErr=1.00D-06
 Number of steps in this run=    264 maximum allowed number of steps=    264.
 GradGradGradGradGradGradGradGradGradGradGradGradGradGradGradGradGradGrad

                          Input orientation:                          
 ---------------------------------------------------------------------
 Center     Atomic      Atomic             Coordinates (Angstroms)
 Number     Number       Type             X           Y           Z
 ---------------------------------------------------------------------
      1         15           0        0.161290   -1.496416    0.000000
      2          6           0        0.767967   -0.638467    1.486024
      3          6           0        0.251136   -1.374119    2.704262
      4          6           0        2.281680   -0.651057    1.457995
      5          6           0        0.246477    0.782706    1.460835
      6          1           0       -0.865264   -1.384094    2.707515
      7          1           0        0.616781   -2.428989    2.705309
      8          1           0        0.602759   -0.877363    3.640472
      9          1           0        2.657830   -0.130115    0.544975
     10          1           0        2.694544   -0.131963    2.356335
     11          1           0        2.661591   -1.700859    1.450920
     12          1           0        0.597349    1.344828    2.359652
     13          1           0        0.609282    1.313623    0.548170
     14          1           0       -0.869958    0.786886    1.455186
     15          6           0        0.770651   -3.211372   -0.001665
     16          6           0        2.242438   -3.192823   -0.356493
     17          6           0        0.562920   -3.791426    1.381323
     18          6           0       -0.015828   -3.994495   -1.031465
     19          1           0        2.392988   -2.741244   -1.366378
     20          1           0        2.814807   -2.592706    0.390969
     21          1           0        2.655875   -4.230047   -0.368062
     22          1           0       -0.520888   -3.779327    1.649072
     23          1           0        0.925166   -4.846914    1.421998
     24          1           0        1.124004   -3.195875    2.140908
     25          1           0        0.329480   -5.055939   -1.064086
     26          1           0       -1.103497   -3.984328   -0.779813
     27          1           0        0.119310   -3.547743   -2.045678
     28          6           0        0.765249   -0.636548   -1.486022
     29          6           0        0.343465   -1.402986   -2.723132
     30          6           0        0.226769    0.779828   -1.507486
     31          1           0        1.885091   -0.608876   -1.428074
     32          6           0        0.754452   -0.677933   -3.988412
     33          1           0       -0.770141   -1.537873   -2.716040
     34          1           0        0.806464   -2.423792   -2.708306
     35          6           0        0.638457    1.505134   -2.772416
     36          1           0       -0.892648    0.754156   -1.439714
     37          1           0        0.605836    1.339540   -0.613354
     38          6           0        0.218225    0.738815   -4.009995
     39          1           0        0.373920   -1.237175   -4.882240
     40          1           0        1.873851   -0.653892   -4.057307
     41          1           0        0.175112    2.525737   -2.787502
     42          1           0        1.752058    1.640512   -2.778398
     43          1           0        0.592542    1.268048   -4.924541
     44          1           0       -0.901616    0.712703   -4.070178
 ---------------------------------------------------------------------
                    Distance matrix (angstroms):
                    1          2          3          4          5
     1  P    0.000000
     2  C    1.820000   0.000000
     3  C    2.708516   1.514068   0.000000
     4  C    2.708585   1.514025   2.489801   0.000000
     5  C    2.708448   1.514041   2.489584   2.489525   0.000000
     6  H    2.897769   2.171507   1.116449   3.464376   2.735910
     7  H    2.897561   2.171515   1.116444   2.736553   3.464221
     8  H    3.719027   2.173939   1.116645   2.762825   2.762894
     9  H    2.897670   2.171538   3.464426   1.116456   2.736177
    10  H    3.719062   2.173865   2.763015   1.116661   2.762530
    11  H    2.898011   2.171570   2.736406   1.116452   3.464241
    12  H    3.718974   2.173890   2.762479   2.762881   1.116676
    13  H    2.897845   2.171499   3.464240   2.735812   1.116448
    14  H    2.897328   2.171493   2.736235   3.464176   1.116457
    15  C    1.820000   2.972047   3.311711   3.311952   4.285595
    16  C    2.708516   3.477595   4.079361   3.123217   4.805348
    17  C    2.708585   3.161353   2.773220   3.580773   4.585754
    18  C    2.708448   4.267904   4.570918   4.759678   5.394628
    19  H    2.897769   3.898533   4.798612   3.515445   5.001886
    20  H    2.897561   3.034427   3.661787   2.278765   4.374281
    21  H    3.719027   4.461084   4.835108   4.035303   5.854720
    22  H    2.897670   3.398931   2.737603   4.204399   4.629949
    23  H    3.719062   4.211868   3.762821   4.409835   5.670516
    24  H    2.898011   2.663826   2.097155   2.877965   4.130576
    25  H    3.718974   5.119510   5.269001   5.438286   6.361752
    26  H    2.897845   4.453221   4.559276   5.251467   5.437605
    27  H    2.897328   4.621425   5.225318   5.034120   5.573562
    28  C    1.820000   2.972048   4.285651   3.311648   3.311702
    29  C    2.730817   4.299033   5.428256   4.669464   4.721465
    30  C    2.730950   3.356421   4.730635   3.881259   2.968388
    31  H    2.408031   3.121027   4.509059   2.913496   3.601021
    32  C    4.114509   5.474595   6.747583   5.656544   5.664432
    33  H    2.871612   4.564214   5.518106   5.246201   4.885170
    34  H    2.934484   4.558648   5.541308   4.762029   5.289324
    35  C    4.113792   4.769289   6.199526   5.024512   4.312304
    36  H    2.872044   3.641015   4.796909   4.521913   3.116345
    37  H    2.935382   2.888977   4.300736   3.325871   2.177490
    38  C    4.591248   5.692569   7.038950   6.007371   5.471079
    39  H    4.893740   6.408472   7.588731   6.646929   6.658135
    40  H    4.483799   5.652587   6.990762   5.530361   5.929760
    41  H    4.893677   5.350392   6.736032   5.705602   4.592561
    42  H    4.482226   4.934316   6.434308   4.845494   4.579705
    43  H    5.663863   6.690360   8.080608   6.875530   6.413138
    44  H    4.751455   5.956891   7.181692   6.523336   5.649347
                    6          7          8          9         10
     6  H    0.000000
     7  H    1.813357   0.000000
     8  H    1.811706   1.811704   0.000000
     9  H    4.319865   3.757359   3.789961   0.000000
    10  H    3.789907   3.116924   2.565189   1.811733   0.000000
    11  H    3.757402   2.506973   3.116260   1.813281   1.811712
    12  H    3.115647   3.789663   2.564890   3.116744   2.564985
    13  H    3.756957   4.319774   3.789828   2.506180   3.115686
    14  H    2.506292   3.757000   3.116744   3.756949   3.789727
    15  C    3.654424   2.821968   4.329082   3.654368   4.329468
    16  C    4.724135   3.549765   4.901595   3.219531   4.114937
    17  C    3.097376   1.900545   3.687425   4.300387   4.345819
    18  C    4.638502   4.100547   5.650324   4.956516   5.808827
    19  H    5.390238   4.453207   5.634495   3.246754   4.556082
    20  H    4.513318   3.195980   4.288919   2.472391   3.151569
    21  H    5.473302   4.104549   5.614635   4.200367   4.921192
    22  H    2.641218   2.057507   3.694543   4.963872   4.913501
    23  H    4.104792   2.754696   4.558828   5.100930   5.121958
    24  H    2.749686   1.078859   2.809962   3.781337   3.449719
    25  H    5.397669   4.603449   6.298257   5.681024   6.445025
    26  H    4.356538   4.186228   5.665992   5.545954   6.253100
    27  H    5.314471   4.906217   6.300553   4.983549   6.138169
    28  C    4.561047   4.560936   5.134719   2.821930   4.329030
    29  C    5.563569   5.531306   6.390538   4.202025   5.739692
    30  C    4.862235   5.310014   5.421174   3.309177   4.674440
    31  H    5.026779   4.691085   5.235134   2.172386   3.899284
    32  C    6.925141   6.920335   7.632998   4.947176   6.657166
    33  H    5.426568   5.666451   6.536542   4.936294   6.301557
    34  H    5.762531   5.416939   6.537578   4.390029   5.870939
    35  C    6.374830   6.744128   6.841251   4.213905   5.762958
    36  H    4.666087   5.439853   5.541335   4.162550   5.297466
    37  H    4.539877   5.021499   4.796844   2.777101   3.917535
    38  C    7.127806   7.435666   7.828764   5.239701   6.886260
    39  H    7.691654   7.684419   8.533374   5.991369   7.681391
    40  H    7.334764   7.103814   7.805218   4.697869   6.486968
    41  H    6.823809   7.410489   7.285796   4.931820   6.314267
    42  H    6.789245   6.922480   6.990170   3.873029   5.513205
    43  H    8.210196   8.478400   8.829629   6.011313   7.706465
    44  H    7.094716   7.621218   8.015334   5.888942   7.412550
                   11         12         13         14         15
    11  H    0.000000
    12  H    3.789867   0.000000
    13  H    3.756864   1.811790   0.000000
    14  H    4.319807   1.811725   1.813362   0.000000
    15  C    2.822641   5.134668   4.561134   4.560711   0.000000
    16  C    2.380838   5.538415   4.877876   5.367241   1.514068
    17  C    2.963062   5.228711   5.172796   4.797868   1.514025
    18  C    4.311794   6.354843   5.573341   5.456609   1.514041
    19  H    3.015247   5.814087   4.825873   5.572769   2.171507
    20  H    1.393686   4.929199   4.488704   5.111917   2.171515
    21  H    3.115368   6.538897   5.979992   6.397292   2.173939
    22  H    3.806240   5.292668   5.331736   4.583638   2.171538
    23  H    3.593559   6.270911   6.230215   5.912975   2.173865
    24  H    2.252849   4.576373   4.810127   4.506493   2.171570
    25  H    4.797974   7.263852   6.576395   6.474873   2.173890
    26  H    4.936222   6.414751   5.724110   5.273922   2.171499
    27  H    4.701103   6.600963   5.531818   5.658950   2.171493
    28  C    3.654380   4.329348   2.822310   3.653872   2.972047
    29  C    4.783842   5.783566   4.260521   4.870963   3.295320
    30  C    4.564464   3.925725   2.158003   3.159160   4.300347
    31  H    3.175529   4.452203   3.037965   4.225120   3.170112
    32  C    5.854048   6.664395   4.956607   5.866615   4.723635
    33  H    5.400639   5.995219   4.548506   4.776358   3.541536
    34  H    4.611213   6.319053   4.961027   5.518470   2.819127
    35  C    5.675212   5.134736   3.326233   4.545748   5.471744
    36  H    5.197641   4.123611   2.553523   2.895175   4.534310
    37  H    4.210864   2.973023   1.161819   2.600434   4.594794
    38  C    6.460931   6.409633   4.610879   5.572671   5.654721
    39  H    6.749619   7.691662   6.004276   6.768089   5.279666
    40  H    5.661911   6.841177   5.165334   6.323916   4.919959
    41  H    6.481582   5.297738   3.575533   4.702784   6.405465
    42  H    5.466181   5.274499   3.532541   5.052413   5.675754
    43  H    7.330884   7.284599   5.472926   6.562876   6.658201
    44  H    7.000303   6.632435   4.896229   5.525953   5.894713
                   16         17         18         19         20
    16  C    0.000000
    17  C    2.489801   0.000000
    18  C    2.489584   2.489525   0.000000
    19  H    1.116449   3.464376   2.735910   0.000000
    20  H    1.116444   2.736553   3.464221   1.813357   0.000000
    21  H    1.116645   2.762825   2.762894   1.811706   1.811704
    22  H    3.464426   1.116456   2.736177   4.319865   3.757359
    23  H    2.763015   1.116661   2.762530   3.789907   3.116924
    24  H    2.736406   1.116452   3.464241   3.757402   2.506973
    25  H    2.762479   2.762881   1.116676   3.115647   3.789663
    26  H    3.464240   2.735812   1.116448   3.756957   4.319774
    27  H    2.736235   3.464176   1.116457   2.506292   3.757000
    28  C    3.161086   4.268004   3.477428   2.663380   3.398579
    29  C    3.522867   4.753878   3.115565   2.798618   4.149770
    30  C    4.601050   5.417987   4.804124   4.136468   4.655755
    31  H    2.820065   4.446288   3.902974   2.192889   2.847609
    32  C    4.661503   6.210039   4.509595   3.717138   5.204844
    33  H    4.169167   4.862504   3.072746   3.643498   4.859839
    34  H    2.860849   4.319121   2.440301   2.102048   3.696956
    35  C    5.520892   6.731479   5.805594   4.804899   5.615675
    36  H    5.155655   5.544299   4.846150   4.797771   5.319597
    37  H    4.825635   5.505215   5.386391   4.518158   4.620690
    38  C    5.736139   7.050405   5.597378   4.881507   6.099980
    39  H    5.272410   6.766990   4.752177   4.324366   5.966752
    40  H    4.503116   6.414153   4.887354   3.444944   4.942829
    41  H    6.548708   7.578658   6.755261   5.888944   6.577928
    42  H    5.428372   6.944298   6.158774   4.648051   5.393928
    43  H    6.594588   8.084744   6.574231   5.654781   6.935310
    44  H    6.239364   7.221558   5.672398   5.485863   6.681269
                   21         22         23         24         25
    21  H    0.000000
    22  H    3.789961   0.000000
    23  H    2.565189   1.811733   0.000000
    24  H    3.116260   1.813281   1.811712   0.000000
    25  H    2.564890   3.116744   2.564985   3.789867   0.000000
    26  H    3.789828   2.506180   3.115686   3.756864   1.811790
    27  H    3.116744   3.756949   3.789727   4.319807   1.811725
    28  C    4.211595   4.621690   5.119505   4.453480   4.460822
    29  C    4.345787   5.050769   5.420435   5.242383   4.012068
    30  C    5.683105   5.595422   6.381995   5.470103   5.853488
    31  H    3.851053   5.030837   5.196666   4.473193   4.725334
    32  C    5.416627   6.559448   6.832429   6.636653   5.281971
    33  H    4.949584   4.913293   5.563019   5.470530   4.039172
    34  H    3.487065   4.752482   4.790097   4.920551   3.139932
    35  C    6.537828   6.987072   7.617338   6.817331   6.786865
    36  H    6.211500   5.498298   6.547201   5.700043   5.949109
    37  H    5.939960   5.708842   6.520494   5.331458   6.417295
    38  C    6.625360   7.279075   7.823470   7.357705   6.501532
    39  H    5.877278   7.065498   7.285431   7.329648   5.400299
    40  H    5.197208   6.932956   6.964497   6.741055   5.542786
    41  H    7.592660   7.740894   8.522820   7.610944   7.776619
    42  H    6.410153   7.358221   7.772630   6.927096   7.057269
    43  H    7.432892   8.362303   8.819408   8.374344   7.413847
    44  H    7.126863   7.282383   8.025613   7.612996   6.620378
                   26         27         28         29         30
    26  H    0.000000
    27  H    1.813362   0.000000
    28  C    3.898535   3.034058   0.000000
    29  C    3.540271   2.260348   1.515180   0.000000
    30  C    4.999630   4.362232   1.515435   2.501217   0.000000
    31  H    4.554732   3.483728   1.121681   2.164347   2.164448
    32  C    4.967830   3.523270   2.502755   1.515106   2.925493
    33  H    3.137714   2.297844   2.163967   1.121768   2.797529
    34  H    3.130864   1.474626   2.165621   1.120996   3.470042
    35  C    6.094184   5.131202   2.501538   2.923459   1.515125
    36  H    4.788859   4.460672   2.164446   2.797928   1.121761
    37  H    5.594024   5.116033   2.166076   3.470079   1.120911
    38  C    5.872743   4.716238   2.925970   2.501802   2.502859
    39  H    5.153594   3.667374   3.471050   2.165680   3.934326
    40  H    5.540612   3.936933   2.800144   2.164081   3.357085
    41  H    6.931566   6.118871   3.470182   3.932856   2.165481
    42  H    6.617202   5.488236   2.798040   3.354112   2.163908
    43  H    6.902375   5.630599   3.934555   3.470254   3.471082
    44  H    5.738411   4.826208   3.358091   2.800160   2.800919
                   31         32         33         34         35
    31  H    0.000000
    32  C    2.799722   0.000000
    33  H    3.093889   2.163981   0.000000
    34  H    2.469079   2.165502   1.808479   0.000000
    35  C    2.798284   2.501576   3.353688   3.933039   0.000000
    36  H    3.094160   3.355544   2.626293   3.820427   2.164334
    37  H    2.469126   3.934882   3.820223   4.311814   2.165649
    38  C    3.355745   1.514985   2.799016   3.470230   1.515071
    39  H    3.822258   1.120931   2.468141   2.514188   3.470100
    40  H    2.629642   1.121775   3.093722   2.468130   2.799739
    41  H    3.820716   3.470061   4.172714   4.990262   1.120958
    42  H    2.626940   2.799024   4.058018   4.173443   1.121816
    43  H    4.173584   2.165501   3.821986   4.311281   2.165631
    44  H    4.061159   2.164050   2.629841   3.822280   2.164245
                   36         37         38         39         40
    36  H    0.000000
    37  H    1.808590   0.000000
    38  C    2.800110   3.471063   0.000000
    39  H    4.173797   4.991656   2.165546   0.000000
    40  H    4.060531   4.176415   2.164017   1.808460   0.000000
    41  H    2.468834   2.513863   2.165512   4.311260   3.822063
    42  H    3.093892   2.468161   2.163916   3.821845   2.629588
    43  H    3.822812   4.311800   1.120980   2.515100   2.467327
    44  H    2.630806   3.822953   1.121760   2.467480   3.093697
                   41         42         43         44
    41  H    0.000000
    42  H    1.808443   0.000000
    43  H    2.514551   2.467617   0.000000
    44  H    2.468136   3.093785   1.808550   0.000000
 Symmetry turned off by external request.
 Stoichiometry    C14H29P
 Framework group  C1[X(C14H29P)]
 Deg. of freedom   126
 Full point group                 C1      NOp   1
 Rotational constants (GHZ):      0.7816952      0.4257485      0.3198587
 Standard basis: def2SVP (5D, 7F)
   359 basis functions,   590 primitive gaussians,   374 cartesian basis functions
    64 alpha electrons       64 beta electrons
       nuclear repulsion energy      1318.6122314534 Hartrees.
 NAtoms=   44 NActive=   44 NUniq=   44 SFac= 1.00D+00 NAtFMM=   60 NAOKFM=F Big=F
 Integral buffers will be    131072 words long.
 Raffenetti 2 integral format.
 Two-electron integral symmetry is turned off.
 Nuclear repulsion after empirical dispersion term =     1318.5589746339 Hartrees.
 Force inversion solution in PCM.
 ------------------------------------------------------------------------------
 Polarizable Continuum Model (PCM)
 =================================
 Model                : C-PCM.
 Atomic radii         : UFF (Universal Force Field).
 Polarization charges : Total charges.
 Charge compensation  : None.
 Solution method      : Matrix inversion.
 Cavity type          : Scaled VdW (van der Waals Surface) (Alpha=1.100).
 Cavity algorithm     : GePol (No added spheres)
                        Default sphere list used, NSphG=   44.
                        Lebedev-Laikov grids with approx.  5.0 points / Ang**2.
                        Smoothing algorithm: Karplus/York (Gamma=1.0000).
                        Polarization charges: spherical gaussians, with
                                              point-specific exponents (IZeta= 3).
                        Self-potential: point-specific (ISelfS= 7).
                        Self-field    : sphere-specific E.n sum rule (ISelfD= 2).
 1st derivatives      : Analytical E(r).r(x)/FMM algorithm (CHGder, D1EAlg=3).
                        Cavity 1st derivative terms included.
 2nd derivatives      : Analytical E(r).r(xy)/FMM algorithm (CHGder, D2EAlg=3).
                        Cavity 2nd derivative terms included.
 Solvent              : DiChloroEthane, Eps=  10.125000 Eps(inf)=   2.087447
 ------------------------------------------------------------------------------
 One-electron integrals computed using PRISM.
   1 Symmetry operations used in ECPInt.
 ECPInt:  NShTT=   16110 NPrTT=   55238 LenC2=   15572 LenP2D=   39992.
 LDataN:  DoStor=T MaxTD1= 4 Len=   56
 NBasis=   359 RedAO= T EigKep=  1.03D-03  NBF=   359
 NBsUse=   359 1.00D-06 EigRej= -1.00D+00 NBFU=   359
 ExpMin= 1.05D-01 ExpMax= 8.00D+03 ExpMxC= 1.20D+03 IAcc=1 IRadAn=         1 AccDes= 0.00D+00
 Harris functional with IExCor=  402 and IRadAn=       1 diagonalized for initial guess.
 HarFok:  IExCor=  402 AccDes= 0.00D+00 IRadAn=         1 IDoV= 1 UseB2=F ITyADJ=14
 ICtDFT=  3500011 ScaDFX=  1.000000  1.000000  1.000000  1.000000
 FoFCou: FMM=F IPFlag=           0 FMFlag=      100000 FMFlg1=           0
         NFxFlg=           0 DoJE=T BraDBF=F KetDBF=T FulRan=T
         wScrn=  0.000000 ICntrl=     500 IOpCl=  0 I1Cent=   200000004 NGrid=           0
         NMat0=    1 NMatS0=      1 NMatT0=    0 NMatD0=    1 NMtDS0=    0 NMtDT0=    0
 Symmetry not used in FoFCou.
 Requested convergence on RMS density matrix=1.00D-08 within 128 cycles.
 Requested convergence on MAX density matrix=1.00D-06.
 Requested convergence on             energy=1.00D-06.
 No special actions if energy rises.
 Inv3:  Mode=1 IEnd=    17078988.
 Iteration    1 A*A^-1 deviation from unit magnitude is 6.22D-15 for   2381.
 Iteration    1 A*A^-1 deviation from orthogonality  is 2.43D-15 for   2361   1511.
 Iteration    1 A^-1*A deviation from unit magnitude is 6.22D-15 for   2381.
 Iteration    1 A^-1*A deviation from orthogonality  is 2.50D-15 for   2361   1511.
 Error on total polarization charges =  0.01468
 SCF Done:  E(RB3LYP) =  -891.767314270     A.U. after   12 cycles
            NFock= 12  Conv=0.34D-08     -V/T= 2.0085
 DoSCS=F DFT=T ScalE2(SS,OS)=  1.000000  1.000000
 Range of M.O.s used for correlation:     1   359
 NBasis=   359 NAE=    64 NBE=    64 NFC=     0 NFV=     0
 NROrb=    359 NOA=    64 NOB=    64 NVA=   295 NVB=   295
   1 Symmetry operations used in ECPInt.
 ECPInt:  NShTT=   16110 NPrTT=   55238 LenC2=   15572 LenP2D=   39992.
 LDataN:  DoStor=T MaxTD1= 5 Len=  102
 Symmetrizing basis deriv contribution to polar:
 IMax=3 JMax=2 DiffMx= 0.00D+00
 G2DrvN: will do    45 centers at a time, making    1 passes.
 Calling FoFCou, ICntrl=  3107 FMM=F I1Cent=   0 AccDes= 0.00D+00.
 NEqPCM:  Using equilibrium solvation (IEInf=0, Eps=  10.1250, EpsInf=   2.0874)
 G2PCM: DoFxE=T DoFxN=T DoGrad=T DoDP/DQ/DG/TGxP=FFFF NFrqRd=   0 IEInf=0 SqF1=F DoCFld=F IF1Alg=4.
 End of G2Drv F.D. properties file   721 does not exist.
 End of G2Drv F.D. properties file   722 does not exist.
 End of G2Drv F.D. properties file   788 does not exist.
          IDoAtm=11111111111111111111111111111111111111111111
 NEqPCM:  Using equilibrium solvation (IEInf=0, Eps=  10.1250, EpsInf=   2.0874)
          Differentiating once with respect to nuclear coordinates.
          There are   135 degrees of freedom in the 1st order CPHF.  IDoFFX=6 NUNeed=     0.
    132 vectors produced by pass  0 Test12= 1.89D-14 1.00D-09 XBig12= 8.47D-02 1.22D-01.
 AX will form    66 AO Fock derivatives at one time.
    129 vectors produced by pass  1 Test12= 1.89D-14 1.00D-09 XBig12= 2.27D-02 1.56D-02.
    129 vectors produced by pass  2 Test12= 1.89D-14 1.00D-09 XBig12= 1.03D-04 2.00D-03.
    129 vectors produced by pass  3 Test12= 1.89D-14 1.00D-09 XBig12= 2.82D-07 5.32D-05.
    129 vectors produced by pass  4 Test12= 1.89D-14 1.00D-09 XBig12= 3.31D-10 1.63D-06.
     56 vectors produced by pass  5 Test12= 1.89D-14 1.00D-09 XBig12= 2.36D-13 3.79D-08.
      2 vectors produced by pass  6 Test12= 1.89D-14 1.00D-09 XBig12= 2.92D-16 1.16D-09.
 InvSVY:  IOpt=1 It=  1 EMax= 3.33D-16
 Solved reduced A of dimension   706 with   135 vectors.
 End of Minotr F.D. properties file   721 does not exist.
 End of Minotr F.D. properties file   722 does not exist.
 End of Minotr F.D. properties file   788 does not exist.

 **********************************************************************

            Population analysis using the SCF density.

 **********************************************************************

 Alpha  occ. eigenvalues --  -77.01769 -10.19137 -10.18991 -10.18471 -10.18235
 Alpha  occ. eigenvalues --  -10.17918 -10.17889 -10.17873 -10.17813 -10.17772
 Alpha  occ. eigenvalues --  -10.17685 -10.17590 -10.17563 -10.17376 -10.16630
 Alpha  occ. eigenvalues --   -6.51805  -4.68407  -4.68401  -4.67864  -0.84404
 Alpha  occ. eigenvalues --   -0.82413  -0.80175  -0.74478  -0.73742  -0.70193
 Alpha  occ. eigenvalues --   -0.68847  -0.67043  -0.66275  -0.63740  -0.60161
 Alpha  occ. eigenvalues --   -0.58154  -0.54351  -0.53768  -0.53094  -0.48590
 Alpha  occ. eigenvalues --   -0.47336  -0.46234  -0.45092  -0.44892  -0.44257
 Alpha  occ. eigenvalues --   -0.44031  -0.42939  -0.41894  -0.41362  -0.39744
 Alpha  occ. eigenvalues --   -0.39082  -0.38699  -0.38440  -0.37400  -0.37099
 Alpha  occ. eigenvalues --   -0.35792  -0.35562  -0.35236  -0.34090  -0.34033
 Alpha  occ. eigenvalues --   -0.33345  -0.33096  -0.32179  -0.31383  -0.31168
 Alpha  occ. eigenvalues --   -0.27867  -0.27288  -0.27058  -0.18909
 Alpha virt. eigenvalues --    0.04476   0.05700   0.06441   0.06898   0.07732
 Alpha virt. eigenvalues --    0.08154   0.09076   0.09382   0.10237   0.10583
 Alpha virt. eigenvalues --    0.10941   0.11223   0.11827   0.12033   0.12839
 Alpha virt. eigenvalues --    0.13104   0.13593   0.13932   0.14413   0.14985
 Alpha virt. eigenvalues --    0.15441   0.15653   0.15813   0.16245   0.17437
 Alpha virt. eigenvalues --    0.17586   0.18417   0.19113   0.20235   0.20849
 Alpha virt. eigenvalues --    0.21240   0.21832   0.22182   0.23249   0.23822
 Alpha virt. eigenvalues --    0.25195   0.25496   0.27133   0.27529   0.28351
 Alpha virt. eigenvalues --    0.29050   0.29212   0.30836   0.33212   0.35471
 Alpha virt. eigenvalues --    0.38289   0.39339   0.39797   0.41310   0.41867
 Alpha virt. eigenvalues --    0.42391   0.43433   0.44325   0.44805   0.45210
 Alpha virt. eigenvalues --    0.46212   0.48246   0.50394   0.51755   0.52480
 Alpha virt. eigenvalues --    0.53141   0.53696   0.54302   0.56095   0.58084
 Alpha virt. eigenvalues --    0.58882   0.59455   0.60682   0.61124   0.61541
 Alpha virt. eigenvalues --    0.62155   0.62849   0.62917   0.63150   0.63490
 Alpha virt. eigenvalues --    0.63859   0.63967   0.65002   0.65150   0.65511
 Alpha virt. eigenvalues --    0.66443   0.66868   0.67037   0.67528   0.67702
 Alpha virt. eigenvalues --    0.68121   0.68522   0.68925   0.69029   0.69247
 Alpha virt. eigenvalues --    0.69479   0.70001   0.70868   0.71081   0.71445
 Alpha virt. eigenvalues --    0.72300   0.72771   0.72919   0.73320   0.73466
 Alpha virt. eigenvalues --    0.74272   0.75037   0.75795   0.76255   0.76812
 Alpha virt. eigenvalues --    0.77444   0.79075   0.80137   0.80472   0.81557
 Alpha virt. eigenvalues --    0.82720   0.84584   0.85384   0.86293   0.86439
 Alpha virt. eigenvalues --    0.87879   0.90645   0.92924   0.93558   0.94654
 Alpha virt. eigenvalues --    0.96792   0.99723   1.00355   1.01553   1.02791
 Alpha virt. eigenvalues --    1.04778   1.08685   1.09306   1.10509   1.12057
 Alpha virt. eigenvalues --    1.12916   1.14019   1.15100   1.16002   1.17235
 Alpha virt. eigenvalues --    1.17811   1.18433   1.20894   1.24017   1.24689
 Alpha virt. eigenvalues --    1.25958   1.29364   1.30585   1.31407   1.32879
 Alpha virt. eigenvalues --    1.35867   1.36456   1.38292   1.41575   1.43430
 Alpha virt. eigenvalues --    1.45943   1.48967   1.50558   1.51877   1.52729
 Alpha virt. eigenvalues --    1.55311   1.56708   1.56728   1.57524   1.58064
 Alpha virt. eigenvalues --    1.59387   1.60073   1.61325   1.62273   1.63514
 Alpha virt. eigenvalues --    1.65344   1.66988   1.67888   1.69770   1.71895
 Alpha virt. eigenvalues --    1.72166   1.73547   1.74562   1.74932   1.75257
 Alpha virt. eigenvalues --    1.76645   1.77238   1.77787   1.78091   1.78491
 Alpha virt. eigenvalues --    1.78780   1.79748   1.80651   1.80886   1.81467
 Alpha virt. eigenvalues --    1.82431   1.83192   1.83698   1.83957   1.84326
 Alpha virt. eigenvalues --    1.84853   1.85562   1.86039   1.86761   1.87708
 Alpha virt. eigenvalues --    1.88535   1.89294   1.89925   1.90449   1.90867
 Alpha virt. eigenvalues --    1.91609   1.92397   1.93085   1.93724   1.94382
 Alpha virt. eigenvalues --    1.95021   1.95666   1.96251   1.97016   1.98323
 Alpha virt. eigenvalues --    1.99776   2.00892   2.01329   2.02234   2.04577
 Alpha virt. eigenvalues --    2.06417   2.07186   2.08906   2.11748   2.13190
 Alpha virt. eigenvalues --    2.14095   2.15458   2.15709   2.17470   2.17646
 Alpha virt. eigenvalues --    2.18081   2.20612   2.22323   2.22984   2.24774
 Alpha virt. eigenvalues --    2.26239   2.27828   2.27909   2.30053   2.32094
 Alpha virt. eigenvalues --    2.33224   2.36075   2.36648   2.39437   2.40392
 Alpha virt. eigenvalues --    2.41317   2.41933   2.43240   2.44402   2.44929
 Alpha virt. eigenvalues --    2.46522   2.48202   2.49911   2.50629   2.53068
 Alpha virt. eigenvalues --    2.54268   2.54934   2.56439   2.57463   2.59123
 Alpha virt. eigenvalues --    2.59852   2.60998   2.62768   2.63269   2.64519
 Alpha virt. eigenvalues --    2.66440   2.68238   2.70360   2.72837   2.76177
 Alpha virt. eigenvalues --    2.77915   2.78323   2.80232   2.85581   2.85838
 Alpha virt. eigenvalues --    2.87085   2.87898   2.88146   2.89226   2.90339
 Alpha virt. eigenvalues --    2.90930   2.91981   2.92530   2.93779   2.94387
 Alpha virt. eigenvalues --    2.95489   2.96893   2.97590   2.98895   3.02020
 Alpha virt. eigenvalues --    3.02448   3.04614   3.06625   3.06862   3.08071
 Alpha virt. eigenvalues --    3.11444   3.12578   3.20333   3.40247   3.52084
          Condensed to atoms (all electrons):
               1          2          3          4          5          6
     1  P   14.726899   0.239728  -0.083719  -0.033495  -0.095536   0.014323
     2  C    0.239728   5.266705   0.400485   0.312219   0.412642  -0.024550
     3  C   -0.083719   0.400485   4.661628  -0.051708  -0.036098   0.354673
     4  C   -0.033495   0.312219  -0.051708   4.682271  -0.056900   0.011700
     5  C   -0.095536   0.412642  -0.036098  -0.056900   4.612172  -0.010301
     6  H    0.014323  -0.024550   0.354673   0.011700  -0.010301   0.690408
     7  H   -0.007960  -0.030736   0.425045  -0.009556   0.010850  -0.021076
     8  H    0.009128  -0.019635   0.352418  -0.009795  -0.012239  -0.023908
     9  H   -0.005468  -0.027851   0.009045   0.392045  -0.004991  -0.000568
    10  H    0.006731  -0.005785  -0.009756   0.329520  -0.009867  -0.000457
    11  H   -0.007201  -0.026997  -0.006649   0.398972   0.009084   0.000636
    12  H    0.009396  -0.015142  -0.012779  -0.010196   0.341310  -0.001188
    13  H   -0.008755  -0.017831   0.010348  -0.009481   0.397952   0.000155
    14  H    0.014779  -0.023857  -0.009420   0.011987   0.366688   0.008127
    15  C    0.230722  -0.006687  -0.002947  -0.013752   0.005672  -0.004350
    16  C   -0.030005  -0.013285   0.000237  -0.012978  -0.000612   0.000239
    17  C   -0.083808   0.001666  -0.046877  -0.002423  -0.000521   0.005308
    18  C   -0.098513   0.005624  -0.000955  -0.000418  -0.000134  -0.000070
    19  H   -0.011594  -0.000506  -0.000009   0.001721   0.000007   0.000010
    20  H   -0.000064  -0.004658   0.000477  -0.009063  -0.000312  -0.000118
    21  H    0.006504   0.000609   0.000005   0.000176   0.000021  -0.000014
    22  H    0.011179  -0.007230   0.001536   0.000799  -0.000211   0.000870
    23  H    0.008570   0.000282   0.003629   0.000038   0.000024  -0.000112
    24  H   -0.012058   0.013375  -0.076240   0.000507  -0.000690  -0.001302
    25  H    0.010271  -0.000232   0.000008   0.000022   0.000004   0.000006
    26  H    0.016026  -0.000329  -0.000122   0.000073  -0.000024   0.000081
    27  H   -0.006649   0.000020   0.000070  -0.000024   0.000005  -0.000006
    28  C    0.234426  -0.008771   0.004833  -0.017145  -0.000856  -0.000219
    29  C   -0.091135   0.005617  -0.000095  -0.000280  -0.000307  -0.000025
    30  C   -0.091706   0.004730  -0.000392  -0.001452  -0.022721  -0.000060
    31  H    0.009168  -0.015020  -0.000155   0.004917  -0.000442   0.000051
    32  C    0.009039  -0.000117   0.000002   0.000001  -0.000030   0.000000
    33  H    0.020426  -0.000465  -0.000024   0.000044  -0.000046   0.000016
    34  H   -0.014879   0.000141  -0.000003   0.000043   0.000019  -0.000000
    35  C    0.009550  -0.000149   0.000009   0.000014   0.001433   0.000002
    36  H    0.020543  -0.005020  -0.000137   0.000457   0.003132   0.000063
    37  H   -0.010166   0.003134  -0.000504   0.000783  -0.046573  -0.000006
    38  C    0.000153  -0.000011  -0.000000   0.000003  -0.000100  -0.000000
    39  H   -0.000366   0.000003  -0.000000   0.000000  -0.000000  -0.000000
    40  H    0.000332   0.000004  -0.000000  -0.000007   0.000000   0.000000
    41  H   -0.000402  -0.000013  -0.000000  -0.000000   0.000132   0.000000
    42  H    0.000292  -0.000053   0.000000   0.000008   0.000143  -0.000000
    43  H    0.000047  -0.000000   0.000000  -0.000000   0.000003  -0.000000
    44  H   -0.000263   0.000006  -0.000000  -0.000000   0.000002  -0.000000
               7          8          9         10         11         12
     1  P   -0.007960   0.009128  -0.005468   0.006731  -0.007201   0.009396
     2  C   -0.030736  -0.019635  -0.027851  -0.005785  -0.026997  -0.015142
     3  C    0.425045   0.352418   0.009045  -0.009756  -0.006649  -0.012779
     4  C   -0.009556  -0.009795   0.392045   0.329520   0.398972  -0.010196
     5  C    0.010850  -0.012239  -0.004991  -0.009867   0.009084   0.341310
     6  H   -0.021076  -0.023908  -0.000568  -0.000457   0.000636  -0.001188
     7  H    0.746331  -0.015283   0.000390  -0.000770   0.004139   0.000285
     8  H   -0.015283   0.704088   0.000071   0.007110  -0.001689   0.008466
     9  H    0.000390   0.000071   0.669803  -0.023399  -0.035818  -0.001518
    10  H   -0.000770   0.007110  -0.023399   0.713943  -0.009353   0.007341
    11  H    0.004139  -0.001689  -0.035818  -0.009353   0.673914   0.000185
    12  H    0.000285   0.008466  -0.001518   0.007341   0.000185   0.698261
    13  H   -0.000873   0.000482   0.006496  -0.001269   0.000235   0.001486
    14  H    0.000019  -0.001243   0.000215  -0.000434  -0.000565  -0.024447
    15  C    0.000119   0.000258  -0.001785   0.000657   0.003604  -0.000201
    16  C   -0.000040   0.000052  -0.000432   0.000962  -0.026081   0.000019
    17  C   -0.055815   0.001295   0.000229   0.000062  -0.003419   0.000004
    18  C   -0.000774   0.000026  -0.000069   0.000024  -0.000283   0.000005
    19  H   -0.000129  -0.000000  -0.000620  -0.000058  -0.000664   0.000001
    20  H   -0.001542   0.000138   0.004895  -0.001141  -0.010381   0.000006
    21  H    0.000210  -0.000008   0.000051   0.000004   0.000813  -0.000001
    22  H    0.007651   0.000399  -0.000015  -0.000045   0.000048   0.000005
    23  H    0.000910  -0.000212   0.000001  -0.000011  -0.000107  -0.000001
    24  H   -0.034610   0.004692  -0.000374  -0.000147   0.004686   0.000015
    25  H    0.000012  -0.000001   0.000002  -0.000001   0.000012  -0.000000
    26  H   -0.000058   0.000004   0.000002  -0.000002   0.000035   0.000000
    27  H    0.000025  -0.000001   0.000003   0.000000  -0.000010  -0.000000
    28  C    0.000128  -0.000189  -0.000633   0.000712  -0.000331  -0.000013
    29  C    0.000010   0.000004   0.000085   0.000014  -0.000086   0.000014
    30  C    0.000046  -0.000001  -0.001161   0.000052   0.000080   0.001672
    31  H   -0.000051   0.000011   0.006804  -0.000863   0.000849   0.000049
    32  C    0.000000  -0.000000   0.000019  -0.000001   0.000001  -0.000000
    33  H   -0.000004   0.000000  -0.000002  -0.000001   0.000008   0.000002
    34  H    0.000000   0.000000   0.000023  -0.000002   0.000010  -0.000001
    35  C   -0.000001  -0.000000   0.000041  -0.000007  -0.000001  -0.000092
    36  H   -0.000003   0.000004  -0.000016  -0.000023   0.000011   0.000020
    37  H    0.000043  -0.000007   0.000213  -0.000002  -0.000198  -0.001288
    38  C    0.000000   0.000000   0.000007  -0.000000  -0.000000   0.000003
    39  H    0.000000   0.000000  -0.000000   0.000000  -0.000000   0.000000
    40  H   -0.000000   0.000000  -0.000029   0.000000   0.000001  -0.000000
    41  H   -0.000000   0.000000   0.000002  -0.000000   0.000000  -0.000002
    42  H   -0.000000   0.000000  -0.000028   0.000002   0.000003   0.000001
    43  H   -0.000000  -0.000000   0.000000  -0.000000   0.000000  -0.000000
    44  H   -0.000000   0.000000  -0.000002   0.000000   0.000000  -0.000000
              13         14         15         16         17         18
     1  P   -0.008755   0.014779   0.230722  -0.030005  -0.083808  -0.098513
     2  C   -0.017831  -0.023857  -0.006687  -0.013285   0.001666   0.005624
     3  C    0.010348  -0.009420  -0.002947   0.000237  -0.046877  -0.000955
     4  C   -0.009481   0.011987  -0.013752  -0.012978  -0.002423  -0.000418
     5  C    0.397952   0.366688   0.005672  -0.000612  -0.000521  -0.000134
     6  H    0.000155   0.008127  -0.004350   0.000239   0.005308  -0.000070
     7  H   -0.000873   0.000019   0.000119  -0.000040  -0.055815  -0.000774
     8  H    0.000482  -0.001243   0.000258   0.000052   0.001295   0.000026
     9  H    0.006496   0.000215  -0.001785  -0.000432   0.000229  -0.000069
    10  H   -0.001269  -0.000434   0.000657   0.000962   0.000062   0.000024
    11  H    0.000235  -0.000565   0.003604  -0.026081  -0.003419  -0.000283
    12  H    0.001486  -0.024447  -0.000201   0.000019   0.000004   0.000005
    13  H    0.735375  -0.033065  -0.000095  -0.000016   0.000077   0.000005
    14  H   -0.033065   0.683283  -0.000319   0.000051  -0.000016  -0.000022
    15  C   -0.000095  -0.000319   5.266844   0.321356   0.404041   0.401118
    16  C   -0.000016   0.000051   0.321356   4.669500  -0.051480  -0.051507
    17  C    0.000077  -0.000016   0.404041  -0.051480   4.657583  -0.038372
    18  C    0.000005  -0.000022   0.401118  -0.051507  -0.038372   4.617295
    19  H   -0.000009   0.000001  -0.025693   0.382231   0.008374  -0.005080
    20  H    0.000036   0.000003  -0.031241   0.391573  -0.007100   0.009608
    21  H    0.000001  -0.000002  -0.013339   0.343868  -0.008693  -0.009045
    22  H    0.000006   0.000042  -0.024101   0.011506   0.377495  -0.008362
    23  H   -0.000002   0.000000  -0.007084  -0.013125   0.338314  -0.013299
    24  H    0.000078   0.000013  -0.013627  -0.006967   0.405578   0.009579
    25  H   -0.000000   0.000000  -0.018820  -0.008567  -0.011748   0.361410
    26  H   -0.000001   0.000013  -0.028305   0.011827  -0.008855   0.357924
    27  H   -0.000004  -0.000002  -0.022882  -0.007999   0.009250   0.391556
    28  C    0.004083  -0.003830  -0.007248  -0.014482   0.004978  -0.000807
    29  C   -0.000306  -0.000089   0.006239  -0.007148  -0.000235  -0.012831
    30  C   -0.042489   0.001974   0.005990  -0.000256  -0.000078  -0.000362
    31  H    0.000982   0.000280  -0.016970   0.009419  -0.000206  -0.000231
    32  C   -0.000052   0.000002  -0.000147  -0.000114   0.000008   0.000827
    33  H    0.000017   0.000033  -0.006248   0.001188  -0.000124  -0.001273
    34  H    0.000009   0.000001   0.010613  -0.003657   0.000029  -0.028278
    35  C    0.002221   0.000171  -0.000128  -0.000006   0.000002  -0.000013
    36  H   -0.000519   0.001083  -0.000534   0.000064  -0.000020  -0.000056
    37  H   -0.023892   0.002468   0.000117   0.000006  -0.000010   0.000009
    38  C   -0.000171   0.000001   0.000004  -0.000010   0.000000  -0.000058
    39  H   -0.000000   0.000000  -0.000008  -0.000003  -0.000000   0.000166
    40  H    0.000007  -0.000000  -0.000082   0.000134  -0.000001  -0.000025
    41  H    0.000198  -0.000002   0.000003   0.000000  -0.000000  -0.000000
    42  H    0.000300  -0.000013   0.000005  -0.000012  -0.000000   0.000001
    43  H    0.000007  -0.000000  -0.000001   0.000000   0.000000   0.000001
    44  H   -0.000024  -0.000004   0.000007  -0.000001  -0.000000  -0.000001
              19         20         21         22         23         24
     1  P   -0.011594  -0.000064   0.006504   0.011179   0.008570  -0.012058
     2  C   -0.000506  -0.004658   0.000609  -0.007230   0.000282   0.013375
     3  C   -0.000009   0.000477   0.000005   0.001536   0.003629  -0.076240
     4  C    0.001721  -0.009063   0.000176   0.000799   0.000038   0.000507
     5  C    0.000007  -0.000312   0.000021  -0.000211   0.000024  -0.000690
     6  H    0.000010  -0.000118  -0.000014   0.000870  -0.000112  -0.001302
     7  H   -0.000129  -0.001542   0.000210   0.007651   0.000910  -0.034610
     8  H   -0.000000   0.000138  -0.000008   0.000399  -0.000212   0.004692
     9  H   -0.000620   0.004895   0.000051  -0.000015   0.000001  -0.000374
    10  H   -0.000058  -0.001141   0.000004  -0.000045  -0.000011  -0.000147
    11  H   -0.000664  -0.010381   0.000813   0.000048  -0.000107   0.004686
    12  H    0.000001   0.000006  -0.000001   0.000005  -0.000001   0.000015
    13  H   -0.000009   0.000036   0.000001   0.000006  -0.000002   0.000078
    14  H    0.000001   0.000003  -0.000002   0.000042   0.000000   0.000013
    15  C   -0.025693  -0.031241  -0.013339  -0.024101  -0.007084  -0.013627
    16  C    0.382231   0.391573   0.343868   0.011506  -0.013125  -0.006967
    17  C    0.008374  -0.007100  -0.008693   0.377495   0.338314   0.405578
    18  C   -0.005080   0.009608  -0.009045  -0.008362  -0.013299   0.009579
    19  H    0.663015  -0.016848  -0.022087  -0.000530   0.000118   0.000526
    20  H   -0.016848   0.703925  -0.017926   0.000259  -0.001299   0.006480
    21  H   -0.022087  -0.017926   0.708979  -0.000404   0.008026  -0.001413
    22  H   -0.000530   0.000259  -0.000404   0.675808  -0.025738  -0.041982
    23  H    0.000118  -0.001299   0.008026  -0.025738   0.699442  -0.008118
    24  H    0.000526   0.006480  -0.001413  -0.041982  -0.008118   0.711336
    25  H   -0.000878   0.000177   0.006239  -0.001045   0.008242   0.000219
    26  H    0.000391  -0.000659  -0.000453   0.008125  -0.001675   0.000205
    27  H    0.002626   0.000295  -0.000590   0.000034   0.000347  -0.000672
    28  C    0.003344  -0.002819   0.000967  -0.000269  -0.000160  -0.000061
    29  C   -0.005910   0.000488   0.000115  -0.000013  -0.000001   0.000019
    30  C    0.000473  -0.000022   0.000010  -0.000022   0.000005  -0.000006
    31  H    0.004455   0.000945  -0.000920   0.000042   0.000002   0.000041
    32  C   -0.000072   0.000002  -0.000008   0.000001  -0.000000  -0.000000
    33  H    0.000120  -0.000047  -0.000056   0.000034   0.000000   0.000004
    34  H    0.009540  -0.000210  -0.000161  -0.000007   0.000012   0.000015
    35  C    0.000040  -0.000002  -0.000001   0.000000  -0.000000   0.000000
    36  H    0.000004  -0.000007  -0.000001   0.000012   0.000000  -0.000000
    37  H   -0.000002   0.000015  -0.000001  -0.000002   0.000000  -0.000003
    38  C    0.000011   0.000002  -0.000000   0.000000  -0.000000   0.000000
    39  H    0.000000   0.000000  -0.000001   0.000000   0.000000  -0.000000
    40  H   -0.000002  -0.000014   0.000001  -0.000000   0.000000   0.000000
    41  H    0.000000  -0.000000   0.000000   0.000000   0.000000   0.000000
    42  H   -0.000025  -0.000002   0.000000   0.000000   0.000000  -0.000000
    43  H   -0.000000  -0.000000  -0.000000  -0.000000  -0.000000  -0.000000
    44  H   -0.000006  -0.000000   0.000000  -0.000000   0.000000   0.000000
              25         26         27         28         29         30
     1  P    0.010271   0.016026  -0.006649   0.234426  -0.091135  -0.091706
     2  C   -0.000232  -0.000329   0.000020  -0.008771   0.005617   0.004730
     3  C    0.000008  -0.000122   0.000070   0.004833  -0.000095  -0.000392
     4  C    0.000022   0.000073  -0.000024  -0.017145  -0.000280  -0.001452
     5  C    0.000004  -0.000024   0.000005  -0.000856  -0.000307  -0.022721
     6  H    0.000006   0.000081  -0.000006  -0.000219  -0.000025  -0.000060
     7  H    0.000012  -0.000058   0.000025   0.000128   0.000010   0.000046
     8  H   -0.000001   0.000004  -0.000001  -0.000189   0.000004  -0.000001
     9  H    0.000002   0.000002   0.000003  -0.000633   0.000085  -0.001161
    10  H   -0.000001  -0.000002   0.000000   0.000712   0.000014   0.000052
    11  H    0.000012   0.000035  -0.000010  -0.000331  -0.000086   0.000080
    12  H   -0.000000   0.000000  -0.000000  -0.000013   0.000014   0.001672
    13  H   -0.000000  -0.000001  -0.000004   0.004083  -0.000306  -0.042489
    14  H    0.000000   0.000013  -0.000002  -0.003830  -0.000089   0.001974
    15  C   -0.018820  -0.028305  -0.022882  -0.007248   0.006239   0.005990
    16  C   -0.008567   0.011827  -0.007999  -0.014482  -0.007148  -0.000256
    17  C   -0.011748  -0.008855   0.009250   0.004978  -0.000235  -0.000078
    18  C    0.361410   0.357924   0.391556  -0.000807  -0.012831  -0.000362
    19  H   -0.000878   0.000391   0.002626   0.003344  -0.005910   0.000473
    20  H    0.000177  -0.000659   0.000295  -0.002819   0.000488  -0.000022
    21  H    0.006239  -0.000453  -0.000590   0.000967   0.000115   0.000010
    22  H   -0.001045   0.008125   0.000034  -0.000269  -0.000013  -0.000022
    23  H    0.008242  -0.001675   0.000347  -0.000160  -0.000001   0.000005
    24  H    0.000219   0.000205  -0.000672  -0.000061   0.000019  -0.000006
    25  H    0.690039  -0.023198  -0.018130  -0.000145   0.000104   0.000009
    26  H   -0.023198   0.685076  -0.018479  -0.001838   0.000426  -0.000053
    27  H   -0.018130  -0.018479   0.683569  -0.003914  -0.005048  -0.000112
    28  C   -0.000145  -0.001838  -0.003914   5.171494   0.384846   0.394620
    29  C    0.000104   0.000426  -0.005048   0.384846   4.750343  -0.035106
    30  C    0.000009  -0.000053  -0.000112   0.394620  -0.035106   4.741261
    31  H    0.000066   0.000123   0.000409   0.306574  -0.028046  -0.032452
    32  C   -0.000040  -0.000033   0.001369  -0.043447   0.414832  -0.026706
    33  H    0.000146   0.001428   0.004636  -0.031118   0.357981  -0.012410
    34  H    0.001595  -0.000460   0.001319  -0.013741   0.357668   0.009792
    35  C   -0.000000   0.000003  -0.000017  -0.046621  -0.026803   0.409543
    36  H    0.000003   0.000044  -0.000034  -0.027450  -0.012730   0.345839
    37  H   -0.000000   0.000001  -0.000001  -0.020313   0.009992   0.375610
    38  C    0.000001   0.000005  -0.000038  -0.021774  -0.047841  -0.049457
    39  H   -0.000002   0.000001  -0.000456   0.009835  -0.022629   0.001177
    40  H    0.000003  -0.000001   0.000181  -0.009674  -0.009405  -0.007721
    41  H    0.000000   0.000000   0.000001   0.009568   0.001353  -0.018071
    42  H    0.000000  -0.000000  -0.000006  -0.008079  -0.008480  -0.013396
    43  H   -0.000000  -0.000000   0.000001   0.001382   0.008992   0.009050
    44  H    0.000000  -0.000002  -0.000011  -0.008979  -0.004635  -0.004932
              31         32         33         34         35         36
     1  P    0.009168   0.009039   0.020426  -0.014879   0.009550   0.020543
     2  C   -0.015020  -0.000117  -0.000465   0.000141  -0.000149  -0.005020
     3  C   -0.000155   0.000002  -0.000024  -0.000003   0.000009  -0.000137
     4  C    0.004917   0.000001   0.000044   0.000043   0.000014   0.000457
     5  C   -0.000442  -0.000030  -0.000046   0.000019   0.001433   0.003132
     6  H    0.000051   0.000000   0.000016  -0.000000   0.000002   0.000063
     7  H   -0.000051   0.000000  -0.000004   0.000000  -0.000001  -0.000003
     8  H    0.000011  -0.000000   0.000000   0.000000  -0.000000   0.000004
     9  H    0.006804   0.000019  -0.000002   0.000023   0.000041  -0.000016
    10  H   -0.000863  -0.000001  -0.000001  -0.000002  -0.000007  -0.000023
    11  H    0.000849   0.000001   0.000008   0.000010  -0.000001   0.000011
    12  H    0.000049  -0.000000   0.000002  -0.000001  -0.000092   0.000020
    13  H    0.000982  -0.000052   0.000017   0.000009   0.002221  -0.000519
    14  H    0.000280   0.000002   0.000033   0.000001   0.000171   0.001083
    15  C   -0.016970  -0.000147  -0.006248   0.010613  -0.000128  -0.000534
    16  C    0.009419  -0.000114   0.001188  -0.003657  -0.000006   0.000064
    17  C   -0.000206   0.000008  -0.000124   0.000029   0.000002  -0.000020
    18  C   -0.000231   0.000827  -0.001273  -0.028278  -0.000013  -0.000056
    19  H    0.004455  -0.000072   0.000120   0.009540   0.000040   0.000004
    20  H    0.000945   0.000002  -0.000047  -0.000210  -0.000002  -0.000007
    21  H   -0.000920  -0.000008  -0.000056  -0.000161  -0.000001  -0.000001
    22  H    0.000042   0.000001   0.000034  -0.000007   0.000000   0.000012
    23  H    0.000002  -0.000000   0.000000   0.000012  -0.000000   0.000000
    24  H    0.000041  -0.000000   0.000004   0.000015   0.000000  -0.000000
    25  H    0.000066  -0.000040   0.000146   0.001595  -0.000000   0.000003
    26  H    0.000123  -0.000033   0.001428  -0.000460   0.000003   0.000044
    27  H    0.000409   0.001369   0.004636   0.001319  -0.000017  -0.000034
    28  C    0.306574  -0.043447  -0.031118  -0.013741  -0.046621  -0.027450
    29  C   -0.028046   0.414832   0.357981   0.357668  -0.026803  -0.012730
    30  C   -0.032452  -0.026706  -0.012410   0.009792   0.409543   0.345839
    31  H    0.738832  -0.008455   0.011959  -0.013368  -0.007274   0.011920
    32  C   -0.008455   4.597334  -0.030146  -0.009389  -0.052823  -0.006757
    33  H    0.011959  -0.030146   0.720452  -0.043353  -0.006645   0.009576
    34  H   -0.013368  -0.009389  -0.043353   0.690437   0.001348  -0.000194
    35  C   -0.007274  -0.052823  -0.006645   0.001348   4.609302  -0.026954
    36  H    0.011920  -0.006757   0.009576  -0.000194  -0.026954   0.725719
    37  H   -0.011588   0.001435  -0.000236  -0.000401  -0.007076  -0.032979
    38  C   -0.004970   0.442451  -0.003976   0.007646   0.438998  -0.004514
    39  H   -0.000012   0.351446  -0.008258  -0.003293   0.008801   0.000022
    40  H    0.007818   0.344325   0.009421  -0.011277  -0.005212   0.000473
    41  H   -0.000002   0.008660   0.000012   0.000028   0.346182  -0.008469
    42  H    0.007230  -0.004512   0.000476   0.000083   0.347821   0.009295
    43  H   -0.000040  -0.016474  -0.000077  -0.000414  -0.015760  -0.000071
    44  H    0.000454  -0.020265   0.005950   0.000153  -0.018636   0.005778
              37         38         39         40         41         42
     1  P   -0.010166   0.000153  -0.000366   0.000332  -0.000402   0.000292
     2  C    0.003134  -0.000011   0.000003   0.000004  -0.000013  -0.000053
     3  C   -0.000504  -0.000000  -0.000000  -0.000000  -0.000000   0.000000
     4  C    0.000783   0.000003   0.000000  -0.000007  -0.000000   0.000008
     5  C   -0.046573  -0.000100  -0.000000   0.000000   0.000132   0.000143
     6  H   -0.000006  -0.000000  -0.000000   0.000000   0.000000  -0.000000
     7  H    0.000043   0.000000   0.000000  -0.000000  -0.000000  -0.000000
     8  H   -0.000007   0.000000   0.000000   0.000000   0.000000   0.000000
     9  H    0.000213   0.000007  -0.000000  -0.000029   0.000002  -0.000028
[...]
 0549758,-0.00150964,0.05056493,0.00046186,-0.00024287,-0.00032019,-0.0
 0002331,-0.00004387,-0.00000370,0.00001373,0.00003473,0.00000763,-0.00
 001597,-0.00000223,0.00001634,0.00001608,-0.00003935,-0.00000851,-0.00
 000058,-0.00000191,-0.00000373,-0.00000043,-0.00000282,-0.00000169,-0.
 00000041,0.,0.00001856,-0.00001251,0.00000335,-0.00000111,0.00001009,0
 .00000784,0.00000290,-0.00000334,-0.00000360,-0.00000055,-0.00000202,0
 .00001578,-0.00000276,0.00001621,0.00002235,-0.00002946,-0.00000176,-0
 .00000140,-0.00000072,-0.00012063,-0.00004834,0.00023450,-0.00003773,0
 .00000196,0.00001230,0.00002459,-0.00008689,-0.00005327,0.00002601,-0.
 00000208,0.00000755,-0.00000766,0.00000836,0.00000163,0.00000103,0.000
 00400,0.00000302,0.00000892,-0.00001192,0.00000124,-0.00000152,0.00000
 345,-0.00000017,0.00001310,-0.00002986,0.00003006,0.00000272,0.0000042
 8,0.00000480,-0.00000390,-0.00002198,-0.00000682,-0.00000351,-0.000002
 86,0.00000418,0.00000169,0.00000839,-0.00000068,-0.00055833,-0.0004243
 3,0.00228467,-0.00011384,0.00033511,-0.00001409,0.00107370,-0.01466392
 ,0.00061308,0.00032851,-0.00032787,0.00006628,-0.00030005,-0.00037390,
 -0.00213884,-0.00003527,0.00002968,-0.00000585,0.00001422,0.00004435,0
 .00000585,-0.05479974,0.04506413,-0.00049710,0.00047390,-0.00028161,-0
 .00055085,0.00030889,0.00049293,-0.00038070,0.00108504,-0.01346929,0.0
 0019252,0.00034892,-0.00060061,-0.00012633,0.00029771,-0.00038541,-0.0
 0005941,0.05503943,0.00035465,-0.00021393,-0.00061746,-0.00004867,-0.0
 0012061,-0.00005504,0.00003789,0.00009698,0.00002004,-0.00001645,0.000
 04589,0.00002091,0.00004056,0.00000702,-0.00001207,0.00000159,-0.00000
 474,-0.00001456,0.00000255,-0.00001321,0.00000163,0.00000448,0.0000014
 5,0.00005389,-0.00004536,-0.00002407,-0.00002030,0.00003217,0.00001407
 ,0.00004016,-0.00000287,-0.00001282,0.00000051,-0.00000502,0.00002023,
 0.00004572,0.00002537,-0.00004141,-0.00003535,-0.00001018,-0.00001405,
 0.00001116,-0.00019015,0.00006519,0.00028115,-0.00003619,-0.00003383,-
 0.00000571,0.00002942,-0.00012191,-0.00010986,0.00005495,-0.00002230,0
 .00001457,-0.00001742,0.00003028,0.00001834,-0.00000667,0.00001061,-0.
 00000090,0.00002642,-0.00004183,0.00000672,-0.00000632,0.00001224,0.00
 000104,0.00002534,-0.00005332,0.00004417,0.00000553,0.00000943,0.00000
 991,-0.00000078,-0.00005209,-0.00001374,-0.00000365,-0.00000110,0.0000
 1245,0.00001192,0.00002676,0.00000536,-0.00176755,0.00044489,0.0027531
 6,0.00041771,0.00063313,-0.00002136,0.00225344,-0.01105891,-0.00026415
 ,-0.00003663,0.00022361,-0.00003627,-0.00183318,0.00079924,-0.00319807
 ,-0.00007914,-0.00002071,-0.00000173,0.00004609,-0.00005506,0.00002635
 ,0.04274458,-0.29888547,0.00067680,-0.00051239,0.00036200,-0.00009925,
 0.00020258,0.00055460,0.00041807,0.00245569,-0.01125950,0.00089216,0.0
 0006406,-0.00103555,0.00013479,0.00009581,0.00019845,0.00009072,-0.044
 89142,0.32201469,-0.00032129,0.00083468,0.00059322,0.00002369,0.000096
 39,0.00009871,-0.00002632,-0.00008883,-0.00001106,0.00002786,-0.000057
 27,-0.00003366,-0.00006643,0.00004563,-0.00000470,-0.00000543,0.000003
 00,0.00001744,-0.00000176,0.00000912,0.00000213,-0.00000678,-0.0000037
 0,-0.00005034,0.00002283,0.00002154,0.00002715,-0.00003544,-0.00001501
 ,-0.00003191,0.00000610,0.00000861,0.00000382,0.00000552,-0.00003474,-
 0.00001582,-0.00000821,-0.00001092,0.00005897,0.00000274,0.00000278,0.
 00000797,0.00028057,0.00000016,-0.00049741,0.00006852,0.00003439,-0.00
 003240,-0.00005048,0.00019548,0.00013958,-0.00008855,0.00000123,-0.000
 04689,-0.00000466,-0.00001734,-0.00000632,0.00000721,-0.00001407,0.000
 00947,-0.00002977,0.00003819,0.00000520,0.00000384,-0.00001562,0.00000
 686,-0.00003788,0.00007443,-0.00006682,-0.00000635,-0.00001067,-0.0000
 0928,0.00000498,0.00005486,0.00003296,0.00000221,-0.00000507,0.0000024
 2,0.00001568,-0.00000753,0.00001836,0.00291601,0.00162978,-0.00451425,
 0.00001942,-0.00005508,-0.00051475,-0.00506482,0.02733070,-0.00112365,
 0.00007103,-0.00037041,-0.00002541,-0.00287245,-0.00119383,-0.00508864
 ,-0.00000587,0.00000664,0.00011413,-0.00001668,0.00001112,0.00027596,-
 0.00047698,0.00089536,-0.04600529,0.00007293,-0.00040571,0.00090512,-0
 .00061451,-0.00005399,0.00063179,0.00579526,-0.02814334,0.00078489,-0.
 00010001,-0.00191476,0.00000113,0.00005165,0.00031001,0.00002260,0.000
 02328,-0.00071488,0.05337320,0.00039766,0.00017397,-0.00024807,-0.0000
 3919,-0.00000370,0.00001517,0.00003337,0.00000771,-0.00000189,0.000020
 61,-0.00002617,-0.00000474,0.00001402,0.00010178,-0.00000615,-0.000004
 57,-0.00000228,-0.00000181,0.00000009,-0.00001170,0.00000773,-0.000002
 67,0.00000172,0.00000922,-0.00006048,-0.00002023,0.00004080,0.00000413
 ,0.00000303,0.00001083,0.00000411,-0.00001759,0.00002233,0.00000102,-0
 .00002607,0.00005967,0.00001540,-0.00010689,-0.00007515,-0.00000841,-0
 .00001025,0.00001264,-0.00004253,0.00000500,0.00011809,-0.00001611,-0.
 00002588,0.00000220,0.00001874,-0.00004580,-0.00003537,0.00001524,-0.0
 0000229,-0.00000261,-0.00001782,0.00000232,0.00000256,0.00000263,0.000
 00072,0.00000873,0.00001229,-0.00001250,0.00000224,-0.00000119,0.00000
 255,0.00000161,0.00000617,-0.00002009,0.00001689,0.00000012,0.00000416
 ,0.00000406,-0.00000229,-0.00001692,0.00000059,-0.00000329,-0.00000277
 ,0.00000713,0.00000656,0.00001422,0.00000793,0.00037699,0.00081387,-0.
 00070774,0.00017707,-0.00019624,0.00000374,-0.01333941,0.00189505,0.00
 072789,0.00035793,-0.00061623,0.00006888,0.00041626,0.00082423,0.00080
 379,0.00000239,0.00022387,-0.00000896,-0.00004029,-0.00007891,-0.00000
 024,-0.29225554,0.03528554,-0.00656750,-0.00006195,-0.00116799,0.00253
 220,0.00068528,0.00004590,0.00039433,-0.01222386,0.00193092,-0.0010006
 1,0.00037056,-0.00008132,-0.00009337,0.00029473,-0.00069678,-0.0000209
 2,-0.00428121,0.00092485,-0.00009263,0.31820881,0.00000810,0.00004259,
 0.00004570,0.00000991,0.00003031,-0.00000040,-0.00000157,-0.00002163,-
 0.00000858,0.00000150,-0.00002113,-0.00001673,0.00001361,0.00003736,-0
 .00001121,-0.00000184,-0.00000054,0.00000285,-0.00000093,0.00000012,0.
 00000120,-0.00000143,0.00000064,-0.00001112,0.00000406,0.00001867,0.00
 001099,-0.00000398,-0.00000043,-0.00000932,0.00000112,-0.00000068,0.00
 000306,0.00000010,-0.00001492,0.00000998,0.00001038,-0.00002330,-0.000
 03152,-0.00000140,-0.00000082,-0.00000279,0.00005396,0.00001669,-0.000
 01982,0.00000498,0.00000640,0.00000967,0.00000236,0.00000987,0.0000045
 5,0.00000337,0.00000378,-0.00000150,0.00000127,-0.00000616,-0.00001373
 ,0.00000292,-0.00000396,0.00000237,0.00000568,0.00001434,-0.00001143,-
 0.00000016,-0.00000137,-0.00000034,-0.00000398,0.00000319,-0.00000158,
 -0.00000082,-0.00000083,-0.00000109,-0.00000103,0.00000515,0.00000196,
 -0.00000002,0.00000207,-0.00000221,-0.00000484,-0.00000012,-0.00000097
 ,-0.00121037,0.00084069,-0.00027162,0.00000749,-0.00005718,0.00003139,
 -0.01292232,0.00073554,0.00011632,0.00016662,-0.00031073,0.00040137,-0
 .00130574,0.00070246,0.00008533,0.00020049,0.00000733,-0.00000067,0.00
 002557,-0.00001785,-0.00000120,0.03777538,-0.05445472,0.00070175,-0.00
 119833,-0.00009295,0.00204889,0.00052945,0.00030192,-0.00038176,-0.013
 50836,0.00117228,-0.00053193,0.00022245,0.00021007,0.00004959,0.000123
 61,-0.00017306,-0.00030821,0.02964867,-0.00339741,0.00062753,-0.037897
 96,0.05435069,-0.00017257,-0.00020224,0.00010989,0.00003413,-0.0000031
 8,0.00000142,-0.00002518,0.00000514,0.00000037,0.00000958,0.00003138,-
 0.00000504,-0.00006634,-0.00010698,0.00001302,0.00000278,0.00000123,0.
 00000183,0.00000063,0.00000881,-0.00000684,0.00000221,-0.00000098,-0.0
 0000092,0.00001645,-0.00002320,0.00002915,-0.00000369,-0.00000921,0.00
 000042,-0.00000615,-0.00000103,0.00000234,-0.00000156,0.00003257,-0.00
 005972,0.00001546,0.00007964,0.00008116,0.00000424,0.00000217,0.000004
 34,-0.00005723,-0.00002696,-0.00005520,-0.00000191,0.00004173,-0.00000
 416,-0.00000783,0.00002085,0.00002295,-0.00001760,-0.00000855,-0.00000
 831,-0.00000004,-0.00000159,-0.00000883,0.00000551,-0.00000235,0.00000
 339,-0.00001262,0.00000768,0.00000360,0.00000266,-0.00000111,-0.000003
 68,-0.00000150,0.00001238,-0.00001037,0.00000009,-0.00000194,-0.000000
 88,0.00000281,0.00000606,0.00000187,0.00000379,-0.00000094,0.00000013,
 0.00000254,-0.00000226,0.00000353,0.00018728,-0.00119686,0.00087209,-0
 .00001239,-0.00003760,-0.00026364,0.02831308,-0.00364050,-0.00144633,-
 0.00043674,0.00039140,0.00000143,-0.00010637,0.00115324,0.00091735,-0.
 00000088,-0.00000091,-0.00007039,-0.00000201,0.00000682,0.00011875,-0.
 00641672,0.00076294,-0.04563626,0.00248997,0.00282187,-0.00416049,-0.0
 0005420,-0.00049366,0.00066394,-0.02884588,0.00377261,-0.00255067,0.00
 030870,0.00022331,-0.00004823,0.00046408,-0.00041012,0.00005596,-0.000
 13469,0.00003931,-0.00060454,0.00678111,-0.00070692,0.05553850,-0.0000
 0127,0.00001029,0.00000532,0.00000462,-0.00001550,0.00000616,-0.000003
 58,0.00000614,0.00000409,-0.00000671,0.00000188,0.00000469,0.00002009,
 -0.00003154,-0.00000696,0.00000014,0.00000015,-0.00000127,-0.00000035,
 0.00000188,-0.00000210,0.00000040,-0.00000198,0.00000183,0.00001046,-0
 .00000190,-0.00000087,0.00000120,0.00000135,-0.00000311,-0.00000241,0.
 00000283,-0.00000364,0.00000079,0.00000766,-0.00001656,-0.00001251,0.0
 0002772,-0.00001185,0.00000373,0.00000609,-0.00001032,0.00001235,0.000
 00086,-0.00001355,0.00000781,0.00000666,-0.00000915,-0.00000356,0.0000
 0571,0.00000305,-0.00000912,0.00000857,-0.00000617,-0.00000617,0.00000
 369,0.00000744,0.00000026,-0.00000248,0.00000481,-0.00000009,-0.000001
 08,0.00000386,-0.00000109,-0.00000067,0.00000130,-0.00000046,0.0000022
 6,-0.00000102,0.00000078,-0.00000027,0.00000011,0.00000082,0.00000222,
 0.00000079,-0.00000010,-0.00000190,0.00000347,0.00000243,0.00000115,0.
 00000442,-0.00021701,-0.00011284,0.00009831,0.00075996,0.00043772,-0.0
 0007264,-0.00029198,-0.00118635,-0.00167264,-0.00000699,-0.00000067,0.
 00003134,0.00129345,0.00283634,-0.00498559,0.00035148,0.00023257,-0.00
 029429,0.00030413,0.00004234,0.00013161,0.00533669,0.00578371,-0.01169
 879,0.00028048,0.00000914,-0.00030772,0.00035876,0.00002453,-0.0004388
 1,-0.10141265,-0.04565673,0.09626593,-0.00002680,-0.00038200,0.0000987
 3,0.00072016,-0.00027828,-0.00041841,0.00024298,0.00017985,0.00058983,
 0.00079651,0.00047641,0.00018177,0.10417295,0.00008096,0.00017247,-0.0
 0012247,-0.00003845,-0.00013637,0.00005179,0.00002190,0.00006933,0.000
 02965,-0.00003897,0.00001977,0.00003813,0.00005542,-0.00005095,0.00000
 495,0.00000047,-0.00000135,-0.00000783,0.00000019,-0.00000243,-0.00000
 291,-0.00000023,-0.00000304,0.00003388,0.00002198,-0.00000546,-0.00001
 246,0.00001743,0.00001199,0.00000529,-0.00000272,0.00000571,-0.0000171
 2,-0.00000424,0.00002396,-0.00000798,-0.00002130,0.00003800,-0.0000093
 0,0.00000383,0.00000976,-0.00001919,-0.00001085,0.00002065,-0.00007292
 ,0.00003036,0.00000560,-0.00005099,0.00000345,0.00001917,-0.00001020,-
 0.00007874,-0.00004622,-0.00008028,-0.00006902,0.00002261,0.00003510,0
 .00000990,-0.00000376,0.00002545,0.00000962,-0.00002353,0.00002769,-0.
 00000367,-0.00000092,0.00000691,0.00000108,-0.00000619,0.00000003,0.00
 000681,0.00000088,0.00001249,0.00001502,-0.00003832,0.00004708,-0.0000
 0262,-0.00002415,0.00005161,0.00008022,0.00004884,0.00009373,-0.000168
 78,-0.00013992,-0.00042882,0.00213467,-0.00652007,-0.00179795,-0.00153
 183,-0.00097139,-0.00246979,0.00003722,0.00005682,0.00007033,-0.015554
 54,-0.01152374,0.02701180,-0.00004973,0.00020612,-0.00024260,-0.000650
 71,-0.00085651,0.00181526,0.00790711,0.00572305,-0.01213695,-0.0001378
 6,-0.00008849,0.00024666,0.00009395,0.00042303,-0.00082989,-0.04433708
 ,-0.08454425,0.07951741,-0.00038546,0.00083485,-0.00046713,0.00043673,
 0.00103927,-0.00001768,0.00048857,0.00049688,0.00036568,0.00002666,0.0
 0037892,0.00060558,0.04904294,0.09315334,-0.00012809,-0.00008795,0.000
 24226,0.00003451,0.00001609,0.00002994,-0.00002873,-0.00002933,0.00000
 212,-0.00004090,-0.00002462,0.00003813,0.00004975,-0.00009913,0.000016
 09,0.00000430,0.00000517,0.00000246,-0.00000416,0.00001473,-0.00000894
 ,-0.00000087,-0.00000448,-0.00002335,0.00007813,0.00002454,-0.00001280
 ,-0.00000910,0.00000036,-0.00004049,-0.00000224,0.00002684,-0.00002517
 ,0.00000192,0.00001401,-0.00007076,-0.00005837,0.00011887,0.00001035,0
 .00002054,0.00003046,-0.00004506,0.00005437,-0.00003963,-0.00009825,0.
 00001015,0.00003382,0.00001338,-0.00001652,0.00004852,0.00004999,-0.00
 002429,0.00000662,0.00000696,0.00001558,-0.00001885,-0.00001625,0.0000
 0787,-0.00000682,-0.00000086,-0.00001550,0.00002788,-0.00000723,0.0000
 0335,-0.00000671,-0.00000247,-0.00001051,0.00002985,-0.00001862,-0.000
 00006,-0.00000655,-0.00000442,0.00000006,0.00003097,0.00000153,0.00000
 308,0.00000183,-0.00000982,-0.00001084,-0.00001600,-0.00001440,0.00024
 081,-0.00048576,0.00035751,-0.00047596,0.00004827,0.00135908,-0.003843
 80,-0.00388026,-0.00297755,-0.00002048,0.00006551,-0.00002871,-0.00092
 604,-0.00082797,0.00080640,0.00010738,-0.00003974,-0.00004494,0.000146
 26,-0.00008148,-0.00009873,0.01282893,0.01084391,-0.02058990,0.0000868
 0,-0.00008196,0.00026664,0.00059830,0.00083738,-0.00148714,0.09398440,
 0.07988812,-0.21473097,-0.00010986,0.00044863,0.00056578,-0.00027166,0
 .00034935,0.00013816,0.00027149,-0.00044295,0.00066086,-0.00044465,0.0
 0036444,0.00071395,-0.10124380,-0.08565451,0.23289222,-0.00008646,-0.0
 0003263,0.00007900,0.00002557,0.00004776,-0.00000758,-0.00001280,-0.00
 003056,-0.00000771,0.00000269,-0.00001549,0.00000124,-0.00000605,-0.00
 000924,-0.00000440,0.00000154,0.00000244,0.00000265,-0.00000113,0.0000
 0379,-0.00000091,-0.00000104,0.00000046,-0.00001622,0.00002452,0.00000
 603,0.00001015,-0.00000647,-0.00000357,-0.00000997,0.00000064,0.000003
 00,0.00000068,0.00000166,-0.00000275,-0.00001575,-0.00001736,0.0000178
 7,0.00000453,0.00000656,0.00000662,-0.00000817,0.00002904,-0.00001461,
 -0.00005033,0.00001038,0.00000952,0.00001379,-0.00000503,0.00002166,0.
 00002406,-0.00000451,0.00000949,-0.00000106,0.00001376,-0.00001437,-0.
 00000511,0.00000366,-0.00000386,0.00000425,-0.00000515,0.00001199,-0.0
 0000450,0.00000228,-0.00000235,-0.00000220,-0.00000535,0.00001231,-0.0
 0000862,-0.00000103,-0.00000253,-0.00000157,-0.00000079,0.00001338,-0.
 00000128,0.00000284,0.00000355,-0.00000847,-0.00002132,-0.00001329,-0.
 00000651,0.00025056,-0.00004813,-0.00005970,0.00054159,-0.00073149,0.0
 0012761,0.00061682,0.00016636,0.00089490,-0.00009156,-0.00008439,0.000
 14857,-0.00394942,0.00082594,0.00018896,0.00031548,0.00022843,-0.00048
 058,0.00028349,0.00006264,-0.00002809,-0.01238809,0.00180263,-0.000902
 39,0.00046195,0.00026780,-0.00042916,0.00029553,-0.00014197,-0.0000302
 4,-0.28685959,0.05017678,-0.01543233,0.00068893,0.00045059,0.00026649,
 0.00109887,0.00096882,0.00006847,0.00051437,-0.00052747,-0.00007787,0.
 00016211,-0.00123437,-0.00244478,-0.01268058,0.00256032,-0.00086155,0.
 31078890,0.00002027,0.00006416,0.00002189,-0.00001718,-0.00002084,0.00
 001565,0.00000314,0.00001060,0.00000657,-0.00000386,-0.00000750,0.0000
 0022,0.00000242,-0.00000762,-0.00000324,0.00000054,0.00000020,-0.00000
 078,-0.00000009,0.00000014,-0.00000053,0.00000022,-0.00000116,0.000004
 35,0.00000042,0.00000089,0.00000035,0.00000052,0.00000131,-0.00000094,
 -0.00000051,0.00000122,-0.00000138,-0.00000094,0.00000328,-0.00000294,
 -0.00000335,0.00000519,0.00000150,0.00000043,0.00000099,0.00000004,0.0
 0000209,-0.00000575,0.00000171,-0.00001464,0.00000747,-0.00003577,-0.0
 0000853,0.00000354,0.00000316,0.00000440,0.00000117,0.00000306,0.00000
 079,0.00002013,-0.00001114,-0.00000027,0.00000159,-0.00000006,-0.00000
 071,-0.00000075,0.00000736,-0.00000006,-0.00000125,0.00000252,0.000000
 08,0.00000175,-0.00000152,0.,0.00000004,-0.00000114,-0.00000006,0.0000
 0251,-0.00000086,-0.00000194,0.00000013,-0.00000021,0.00000667,0.00000
 446,-0.00000523,-0.00009430,-0.00017741,-0.00003500,0.00096048,0.00150
 437,-0.00060581,0.00036819,0.00017770,0.00068901,-0.00007402,-0.000015
 06,-0.00009523,0.03297860,-0.00872751,0.00195564,-0.00064187,-0.000156
 19,0.00034918,-0.00034014,0.00019297,-0.00035082,-0.01529246,0.0020903
 5,-0.00144864,0.00026751,0.00009487,0.00002630,0.00001378,-0.00012014,
 0.00012510,0.04884476,-0.05680823,0.00483748,-0.00025948,0.00100983,-0
 .00035892,0.00099381,-0.00647814,0.00070154,-0.00025759,0.00041621,0.0
 0053546,-0.00120150,-0.00029132,-0.00314763,-0.01148849,0.00220604,-0.
 00144148,-0.05476711,0.06499573,0.00000929,0.00003815,0.00001067,0.000
 00790,-0.00001164,0.00000233,0.00000621,0.00000644,0.00000095,0.000006
 04,-0.00000327,0.00001233,-0.00000118,0.00000777,-0.00000191,-0.000000
 93,-0.00000043,-0.00000083,0.00000015,-0.00000189,0.00000115,-0.000000
 72,0.00000063,0.00000415,-0.00000642,-0.00000714,0.00000551,0.00000285
 ,0.00000200,0.00000435,0.00000021,-0.00000293,0.00000268,0.00000041,-0
 .00000105,0.00000695,-0.00000123,-0.00000886,0.00000056,-0.00000048,-0
 .00000092,0.00000052,0.00001306,0.00000761,-0.00001037,0.00000596,-0.0
 0001879,-0.00000401,0.00000076,0.00000160,-0.00000220,-0.00000254,-0.0
 0000277,-0.00000533,-0.00000382,0.00000519,0.00000794,-0.00000006,-0.0
 0000012,0.00000191,0.00000183,-0.00000481,0.00000340,-0.00000093,0.000
 00018,0.00000131,0.00000004,-0.00000172,0.00000044,0.00000043,0.000000
 42,0.00000109,0.00000145,-0.00000379,0.00000315,-0.00000097,-0.0000012
 0,0.00000372,0.00000379,0.00000419,0.00000573,0.00004658,-0.00003816,-
 0.00014140,-0.00093585,0.00025868,0.00005404,-0.00107020,0.00038644,0.
 00135567,0.00014381,-0.00009134,0.00004678,0.00028580,-0.00033533,-0.0
 0078448,0.00002603,0.00027000,0.00003293,0.00007780,-0.00007445,0.0000
 1303,-0.02747523,0.00524294,-0.00298590,0.00055092,-0.00003638,-0.0002
 1736,0.00027139,-0.00023264,0.00030579,-0.01330773,0.00445692,-0.04932
 193,0.00046329,-0.00000699,0.00017174,-0.00014917,-0.00029843,0.001038
 64,0.00053932,0.00004455,0.00088916,-0.00234994,-0.00217233,-0.0042169
 1,0.02377037,-0.00563752,0.00218306,0.01907172,-0.00173883,0.05152096\
 \-0.00001061,0.00001154,-0.00001620,0.00000062,-0.00001169,0.00000304,
 0.00000031,-0.00000651,0.00000522,0.00000975,0.00000180,-0.00000592,-0
 .00001159,-0.00000468,0.00001778,0.00000087,0.00000281,0.00000168,-0.0
 0000792,-0.00000211,-0.00000318,0.00000329,-0.00000601,-0.00000020,0.0
 0000335,-0.00000389,0.00000210,0.00000418,-0.00000846,-0.00000034,0.00
 000008,-0.00000627,-0.00000209,0.00000866,-0.00000058,-0.00000093,0.00
 001043,0.00000272,0.00000988,0.00000787,0.00000378,0.00000310,-0.00000
 686,0.00001449,-0.00000033,-0.00000097,-0.00000320,-0.00000547,-0.0000
 0827,-0.00000875,0.00000367,-0.00000612,-0.00001179,-0.00001448,-0.000
 00357,-0.00000193,0.00000223,-0.00000248,-0.00000615,0.00000117,-0.000
 00864,-0.00000260,-0.00000545,-0.00000131,-0.00000086,-0.00000422,-0.0
 0000859,-0.00000066,-0.00000188,-0.00000105,-0.00000624,0.00000359,-0.
 00001405,0.00000318,-0.00000123,-0.00000622,0.00000404,-0.00000610,-0.
 00000652,-0.00000283,0.00000850,0.00000090,0.00000571,0.00001314,0.000
 00140,-0.00000161,-0.00000606,0.00000298,-0.00000265,0.00000235,-0.000
 00303,-0.00000170,-0.00000039,0.00000297,-0.00000055,-0.00000407,0.000
 00236,0.00000613,-0.00000036,-0.00000283,0.00001419,-0.00000342,0.0000
 0510,0.00000476,-0.00000043,0.00000731,0.00000441,0.00000647,0.0000121
 7,-0.00000083,-0.00001317,0.00000358,0.00000884,-0.00000387,0.00000105
 ,0.00000567,0.00000245,-0.00000264,0.00000118,-0.00000033,0.00001069,-
 0.00000063,0.00000509,0.00000284,-0.00000097,0.00000144,0.00000318,0.0
 0000287,0.00000455,0.00000731,0.00000603,0.00000267\\\@


 THE MOST INCOMPREHENSIBLE THING ABOUT THE WORLD
 IS THAT IT IS COMPREHENSIBLE. -- A. EINSTEIN
 Job cpu time:       0 days  1 hours 56 minutes 38.8 seconds.
 File lengths (MBytes):  RWF=    639 Int=      0 D2E=      0 Chk=     28 Scr=      1
 Normal termination of Gaussian 09 at Tue May 14 20:25:39 2019.
46389.16user 63.27system 12:55:51elapsed 99%CPU (0avgtext+0avgdata 469920maxresident)k
94074614inputs+28151773outputs (37major+1257263minor)pagefaults 0swaps
